 -13.605  -0.000  -0.000  -0.000  -0.000   0.000   0.000   0.000   0.000
 -13.584  -0.000  -0.000  -0.000  -0.000   0.000   0.000   0.000   0.000
 -13.562  -0.000  -0.000  -0.000  -0.000   0.000   0.000   0.000   0.000
 -13.540  -0.000  -0.000  -0.000  -0.000   0.000   0.000   0.000   0.000
 -13.518  -0.000  -0.000  -0.000  -0.000   0.000   0.000   0.000   0.000
 -13.497  -0.000  -0.000  -0.000  -0.000   0.000   0.000   0.000   0.000
 -13.475  -0.000  -0.000  -0.000  -0.000   0.000   0.000   0.000   0.000
 -13.453  -0.000  -0.000  -0.000  -0.000   0.000   0.000   0.000   0.000
 -13.431  -0.000  -0.000  -0.000  -0.000   0.000   0.000   0.000   0.000
 -13.409  -0.000  -0.000  -0.000  -0.000   0.000   0.000   0.000   0.000
 -13.388  -0.000  -0.000  -0.000  -0.000   0.000   0.000   0.000   0.000
 -13.366  -0.000  -0.000  -0.000  -0.000   0.000   0.000   0.000   0.000
 -13.344  -0.000  -0.000  -0.000  -0.000   0.000   0.000   0.000   0.000
 -13.322  -0.000  -0.000  -0.000  -0.000   0.000   0.000   0.000   0.000
 -13.301  -0.000  -0.000  -0.000  -0.000   0.000   0.000   0.000   0.000
 -13.279  -0.000  -0.000  -0.000  -0.000   0.000   0.000   0.000   0.000
 -13.257  -0.000  -0.000  -0.000  -0.000   0.000   0.000   0.000   0.000
 -13.235  -0.000  -0.000  -0.000  -0.000   0.000   0.000   0.000   0.000
 -13.214  -0.000  -0.000  -0.000  -0.000   0.000   0.000   0.000   0.000
 -13.192  -0.000  -0.000  -0.000  -0.000   0.000   0.000   0.000   0.000
 -13.170  -0.000  -0.000  -0.000  -0.000   0.000   0.000   0.000   0.000
 -13.148  -0.000  -0.000  -0.000  -0.000   0.000   0.000   0.000   0.000
 -13.126  -0.000  -0.000  -0.000  -0.000   0.000   0.000   0.000   0.000
 -13.105  -0.000  -0.000  -0.000  -0.000   0.000   0.000   0.000   0.000
 -13.083  -0.000  -0.000  -0.000  -0.000   0.000   0.000   0.000   0.000
 -13.061  -0.000  -0.000  -0.000  -0.000   0.000   0.000   0.000   0.000
 -13.039  -0.000  -0.000  -0.000  -0.000   0.000   0.000   0.000   0.000
 -13.018  -0.000  -0.000  -0.000  -0.000   0.000   0.000   0.000   0.000
 -12.996  -0.000  -0.000  -0.000  -0.000   0.000   0.000   0.000   0.000
 -12.974  -0.000  -0.000  -0.000  -0.000   0.000   0.000   0.000   0.000
 -12.952  -0.000  -0.000  -0.000  -0.000   0.000   0.000   0.000   0.000
 -12.931  -0.000  -0.000  -0.000  -0.000   0.000   0.000   0.000   0.000
 -12.909  -0.000  -0.000  -0.000  -0.000   0.000   0.000   0.000   0.000
 -12.887  -0.000  -0.000  -0.000  -0.000   0.000   0.000   0.000   0.000
 -12.865  -0.000  -0.000  -0.000  -0.000   0.000   0.000   0.000   0.000
 -12.843  -0.000  -0.000  -0.000  -0.000   0.000   0.000   0.000   0.000
 -12.822  -0.000  -0.000  -0.000  -0.000   0.000   0.000   0.000   0.000
 -12.800  -0.000  -0.000  -0.000  -0.000   0.000   0.000   0.000   0.000
 -12.778  -0.000  -0.000  -0.000  -0.000   0.000   0.000   0.000   0.000
 -12.756  -0.000  -0.000  -0.000  -0.000   0.000   0.000   0.000   0.000
 -12.735  -0.000  -0.000  -0.000  -0.000   0.000   0.000   0.000   0.000
 -12.713  -0.000  -0.000  -0.000  -0.000   0.000   0.000   0.000   0.000
 -12.691  -0.000  -0.000  -0.000  -0.000   0.000   0.000   0.000   0.000
 -12.669  -0.000  -0.000  -0.000  -0.000   0.000   0.000   0.000   0.000
 -12.648  -0.000  -0.000  -0.000  -0.000   0.000   0.000   0.000   0.000
 -12.626  -0.000  -0.000  -0.000  -0.000   0.000   0.000   0.000   0.000
 -12.604  -0.000  -0.000  -0.000  -0.000   0.000   0.000   0.000   0.000
 -12.582  -0.000  -0.000  -0.000  -0.000   0.000   0.000   0.000   0.000
 -12.560  -0.000  -0.000  -0.000  -0.000   0.000   0.000   0.000   0.000
 -12.539  -0.000  -0.000  -0.000  -0.000   0.000   0.000   0.000   0.000
 -12.517  -0.000  -0.000  -0.000  -0.000   0.000   0.000   0.000   0.000
 -12.495  -0.000  -0.000  -0.000  -0.000   0.000   0.000   0.000   0.000
 -12.473  -0.000  -0.000  -0.000  -0.000   0.000   0.000   0.000   0.000
 -12.452  -0.000  -0.000  -0.000  -0.000   0.000   0.000   0.000   0.000
 -12.430  -0.000  -0.000  -0.000  -0.000   0.000   0.000   0.000   0.000
 -12.408  -0.000  -0.000  -0.000  -0.000   0.000   0.000   0.000   0.000
 -12.386  -0.000  -0.000  -0.000  -0.000   0.000   0.000   0.000   0.000
 -12.365  -0.000  -0.000  -0.000  -0.000   0.000   0.000   0.000   0.000
 -12.343  -0.000  -0.000  -0.000  -0.000   0.000   0.000   0.000   0.000
 -12.321  -0.000  -0.000  -0.000  -0.000   0.000   0.000   0.000   0.000
 -12.299  -0.000  -0.000  -0.000  -0.000   0.000   0.000   0.000   0.000
 -12.277  -0.000  -0.000  -0.000  -0.000   0.000   0.000   0.000   0.000
 -12.256  -0.000  -0.000  -0.000  -0.000   0.000   0.000   0.000   0.000
 -12.234  -0.000  -0.000  -0.000  -0.000   0.000   0.000   0.000   0.000
 -12.212  -0.000  -0.000  -0.000  -0.000   0.000   0.000   0.000   0.000
 -12.190  -0.000  -0.000  -0.000  -0.000   0.000   0.000   0.000   0.000
 -12.169  -0.000  -0.000  -0.000  -0.000   0.000   0.000   0.000   0.000
 -12.147  -0.000  -0.000  -0.000  -0.000   0.000   0.000   0.000   0.000
 -12.125  -0.000  -0.000  -0.000  -0.000   0.000   0.000   0.000   0.000
 -12.103  -0.000  -0.000  -0.000  -0.000   0.000   0.000   0.000   0.000
 -12.082  -0.000  -0.000  -0.000  -0.000   0.000   0.000   0.000   0.000
 -12.060  -0.000  -0.000  -0.000  -0.000   0.000   0.000   0.000   0.000
 -12.038  -0.000  -0.000  -0.000  -0.000   0.000   0.000   0.000   0.000
 -12.016  -0.000  -0.000  -0.000  -0.000   0.000   0.000   0.000   0.000
 -11.994  -0.000  -0.000  -0.000  -0.000   0.000   0.000   0.000   0.000
 -11.973  -0.000  -0.000  -0.000  -0.000   0.000   0.000   0.000   0.000
 -11.951  -0.000  -0.000  -0.000  -0.000   0.000   0.000   0.000   0.000
 -11.929  -0.000  -0.000  -0.000  -0.000   0.000   0.000   0.000   0.000
 -11.907  -0.000  -0.000  -0.000  -0.000   0.000   0.000   0.000   0.000
 -11.886  -0.000  -0.000  -0.000  -0.000   0.000   0.000   0.000   0.000
 -11.864  -0.000  -0.000  -0.000  -0.000   0.000   0.000   0.000   0.000
 -11.842  -0.000  -0.000  -0.000  -0.000   0.000   0.000   0.000   0.000
 -11.820  -0.000  -0.000  -0.000  -0.000   0.000   0.000   0.000   0.000
 -11.799  -0.000  -0.000  -0.000  -0.000   0.000   0.000   0.000   0.000
 -11.777  -0.000  -0.000  -0.000  -0.000   0.000   0.000   0.000   0.000
 -11.755  -0.000  -0.000  -0.000  -0.000   0.000   0.000   0.000   0.000
 -11.733  -0.000  -0.000  -0.000  -0.000   0.000   0.000   0.000   0.000
 -11.711  -0.000  -0.000  -0.000  -0.000   0.000   0.000   0.000   0.000
 -11.690  -0.000  -0.000  -0.000  -0.000   0.000   0.000   0.000   0.000
 -11.668  -0.000  -0.000  -0.000  -0.000   0.000   0.000   0.000   0.000
 -11.646  -0.000  -0.000  -0.000  -0.000   0.000   0.000   0.000   0.000
 -11.624  -0.000  -0.000  -0.000  -0.000   0.000   0.000   0.000   0.000
 -11.603  -0.000  -0.000  -0.000  -0.000   0.000   0.000   0.000   0.000
 -11.581  -0.000  -0.000  -0.000  -0.000   0.000   0.000   0.000   0.000
 -11.559  -0.000  -0.000  -0.000  -0.000   0.000   0.000   0.000   0.000
 -11.537  -0.000  -0.000  -0.000  -0.000   0.000   0.000   0.000   0.000
 -11.516  -0.000  -0.000  -0.000  -0.000   0.000   0.000   0.000   0.000
 -11.494  -0.000  -0.000  -0.000  -0.000   0.000   0.000   0.000   0.000
 -11.472  -0.000  -0.000  -0.000  -0.000   0.000   0.000   0.000   0.000
 -11.450  -0.000  -0.000  -0.000  -0.000   0.000   0.000   0.000   0.000
 -11.428  -0.000  -0.000  -0.000  -0.000   0.000   0.000   0.000   0.000
 -11.407  -0.000  -0.000  -0.000  -0.000   0.000   0.000   0.001   0.000
 -11.385  -0.000  -0.000  -0.000  -0.000   0.000   0.000   0.001   0.000
 -11.363  -0.000  -0.000  -0.000  -0.000   0.000   0.000   0.001   0.000
 -11.341  -0.000  -0.000  -0.000  -0.000   0.000   0.000   0.001   0.000
 -11.320  -0.000  -0.000  -0.000  -0.000   0.000   0.000   0.001   0.000
 -11.298  -0.000  -0.000  -0.000  -0.000   0.000   0.000   0.001   0.000
 -11.276  -0.000  -0.000  -0.000  -0.000   0.000   0.000   0.001   0.000
 -11.254  -0.000  -0.000  -0.000  -0.000   0.000   0.000   0.001   0.000
 -11.233  -0.000  -0.000  -0.000  -0.000   0.000   0.000   0.001   0.000
 -11.211  -0.000  -0.000  -0.000  -0.000   0.000   0.000   0.001   0.000
 -11.189  -0.000  -0.000  -0.000  -0.000   0.000   0.000   0.001   0.000
 -11.167  -0.000  -0.000  -0.000  -0.000   0.000   0.000   0.001   0.000
 -11.146  -0.000  -0.000  -0.000  -0.000   0.000   0.000   0.001   0.000
 -11.124  -0.000  -0.000  -0.000  -0.000   0.000   0.000   0.001   0.000
 -11.102  -0.000  -0.000  -0.000  -0.000   0.000   0.000   0.001   0.000
 -11.080  -0.000  -0.000  -0.000  -0.000   0.000   0.000   0.001   0.000
 -11.058  -0.000  -0.000  -0.000  -0.000   0.000   0.000   0.001   0.000
 -11.037  -0.000  -0.000  -0.000  -0.000   0.000   0.000   0.001   0.000
 -11.015  -0.000  -0.000  -0.000  -0.000   0.000   0.000   0.001   0.000
 -10.993  -0.000  -0.000  -0.000  -0.000   0.000   0.000   0.001   0.000
 -10.971  -0.000  -0.000  -0.000  -0.000   0.000   0.000   0.001   0.000
 -10.950  -0.000  -0.000  -0.000  -0.000   0.000   0.000   0.001   0.000
 -10.928  -0.000  -0.000  -0.000  -0.000   0.000   0.000   0.001   0.000
 -10.906  -0.000  -0.000  -0.000  -0.000   0.000   0.000   0.001   0.000
 -10.884  -0.000  -0.000  -0.000  -0.000   0.000   0.000   0.001   0.000
 -10.863  -0.000  -0.000  -0.000  -0.000   0.000   0.000   0.001   0.000
 -10.841  -0.000  -0.000  -0.000  -0.000   0.000   0.000   0.001   0.000
 -10.819  -0.000  -0.000  -0.000  -0.000   0.000   0.000   0.001   0.000
 -10.797  -0.000  -0.000  -0.000  -0.000   0.000   0.000   0.001   0.000
 -10.775  -0.000  -0.000  -0.000  -0.000   0.000   0.000   0.001   0.000
 -10.754  -0.000  -0.000  -0.000  -0.000   0.000   0.000   0.001   0.000
 -10.732  -0.000  -0.000  -0.000  -0.000   0.000   0.000   0.001   0.000
 -10.710  -0.000  -0.000  -0.000  -0.000   0.000   0.000   0.001   0.000
 -10.688  -0.000  -0.000  -0.000  -0.000   0.000   0.000   0.001   0.000
 -10.667  -0.000  -0.000  -0.000  -0.000   0.000   0.000   0.001   0.000
 -10.645  -0.000  -0.000  -0.000  -0.000   0.000   0.000   0.001   0.000
 -10.623  -0.000  -0.000  -0.000  -0.000   0.000   0.000   0.001   0.000
 -10.601  -0.000  -0.000  -0.000  -0.000   0.000   0.000   0.001   0.000
 -10.580  -0.000  -0.000  -0.000  -0.000   0.000   0.000   0.001   0.000
 -10.558  -0.000  -0.000  -0.000  -0.000   0.000   0.000   0.001   0.000
 -10.536  -0.000  -0.000  -0.000  -0.000   0.000   0.000   0.001   0.000
 -10.514  -0.000  -0.000  -0.000  -0.000   0.000   0.000   0.001   0.000
 -10.492  -0.000  -0.000  -0.000  -0.000   0.000   0.000   0.001   0.000
 -10.471  -0.000  -0.000  -0.000  -0.000   0.000   0.000   0.001   0.000
 -10.449  -0.000  -0.000  -0.000  -0.000   0.000   0.000   0.001   0.000
 -10.427  -0.000  -0.000  -0.000  -0.000   0.000   0.000   0.001   0.000
 -10.405  -0.000  -0.000  -0.000  -0.000   0.000   0.000   0.001   0.000
 -10.384  -0.000  -0.000  -0.000  -0.000   0.000   0.000   0.001   0.000
 -10.362  -0.000  -0.000  -0.000  -0.000   0.000   0.000   0.001   0.000
 -10.340  -0.000  -0.000  -0.000  -0.000   0.000   0.000   0.001   0.000
 -10.318  -0.000  -0.000  -0.000  -0.000   0.000   0.000   0.001   0.000
 -10.297  -0.000  -0.000  -0.000  -0.000   0.000   0.000   0.001   0.000
 -10.275  -0.000  -0.000  -0.000  -0.000   0.000   0.000   0.001   0.000
 -10.253  -0.000  -0.000  -0.000  -0.000   0.000   0.000   0.001   0.000
 -10.231  -0.000  -0.000  -0.000  -0.000   0.000   0.000   0.001   0.000
 -10.209  -0.000  -0.000  -0.000  -0.000   0.000   0.000   0.001   0.000
 -10.188  -0.000  -0.000  -0.000  -0.000   0.000   0.000   0.001   0.000
 -10.166  -0.000  -0.000  -0.000  -0.000   0.000   0.000   0.001   0.000
 -10.144  -0.000  -0.000  -0.000  -0.000   0.000   0.000   0.001   0.000
 -10.122  -0.000  -0.000  -0.000  -0.000   0.000   0.000   0.001   0.000
 -10.101  -0.000  -0.000  -0.000  -0.000   0.000   0.000   0.001   0.000
 -10.079  -0.000  -0.000  -0.000  -0.000   0.000   0.000   0.001   0.000
 -10.057  -0.000  -0.000  -0.000  -0.000   0.000   0.000   0.001   0.000
 -10.035  -0.000  -0.000  -0.000  -0.000   0.000   0.000   0.001   0.000
 -10.014  -0.000  -0.000  -0.000  -0.000   0.000   0.000   0.001   0.000
  -9.992  -0.000  -0.000  -0.000  -0.000   0.000   0.000   0.001   0.000
  -9.970  -0.000  -0.000  -0.000  -0.000   0.000   0.000   0.001   0.000
  -9.948  -0.000  -0.000  -0.000  -0.000   0.000   0.000   0.001   0.000
  -9.926  -0.000  -0.000  -0.000  -0.000   0.000   0.000   0.001   0.000
  -9.905  -0.000  -0.000  -0.000  -0.000   0.000   0.000   0.001   0.000
  -9.883  -0.000  -0.000  -0.000  -0.000   0.000   0.000   0.001   0.000
  -9.861  -0.000  -0.000  -0.000  -0.000   0.000   0.000   0.001   0.000
  -9.839  -0.000  -0.000  -0.000  -0.000   0.000   0.000   0.001   0.000
  -9.818  -0.000  -0.000  -0.000  -0.000   0.000   0.000   0.001   0.000
  -9.796  -0.000  -0.000  -0.000  -0.000   0.000   0.000   0.001   0.000
  -9.774  -0.000  -0.000  -0.000  -0.000   0.000   0.000   0.001   0.000
  -9.752  -0.000  -0.000  -0.000  -0.000   0.000   0.000   0.001   0.000
  -9.731  -0.000  -0.000  -0.000  -0.000   0.000   0.000   0.001   0.000
  -9.709  -0.000  -0.000  -0.000  -0.000   0.000   0.000   0.001   0.000
  -9.687  -0.000  -0.000  -0.000  -0.000   0.000   0.000   0.001   0.000
  -9.665  -0.000  -0.000  -0.001  -0.000   0.000   0.000   0.001   0.000
  -9.643  -0.000  -0.000  -0.001  -0.000   0.000   0.000   0.001   0.000
  -9.622  -0.000  -0.000  -0.001  -0.000   0.000   0.000   0.001   0.000
  -9.600  -0.000  -0.000  -0.001  -0.000   0.000   0.000   0.001   0.000
  -9.578  -0.000  -0.000  -0.001  -0.000   0.000   0.000   0.001   0.000
  -9.556  -0.000  -0.000  -0.001  -0.000   0.000   0.000   0.001   0.000
  -9.535  -0.000  -0.000  -0.001  -0.000   0.000   0.000   0.001   0.000
  -9.513  -0.000  -0.000  -0.001  -0.000   0.000   0.000   0.001   0.000
  -9.491  -0.000  -0.000  -0.001  -0.000   0.000   0.000   0.001   0.000
  -9.469  -0.000  -0.000  -0.001  -0.000   0.000   0.000   0.001   0.000
  -9.448  -0.000  -0.000  -0.001  -0.000   0.000   0.000   0.001   0.000
  -9.426  -0.000  -0.000  -0.001  -0.000   0.000   0.000   0.001   0.000
  -9.404  -0.000  -0.000  -0.001  -0.000   0.000   0.000   0.001   0.000
  -9.382  -0.000  -0.000  -0.001  -0.000   0.000   0.000   0.001   0.000
  -9.360  -0.000  -0.000  -0.001  -0.000   0.000   0.000   0.001   0.000
  -9.339  -0.000  -0.000  -0.001  -0.000   0.000   0.000   0.001   0.000
  -9.317  -0.000  -0.000  -0.001  -0.000   0.000   0.000   0.001   0.000
  -9.295  -0.000  -0.000  -0.001  -0.000   0.000   0.000   0.001   0.000
  -9.273  -0.000  -0.000  -0.001  -0.000   0.000   0.000   0.001   0.000
  -9.252  -0.000  -0.000  -0.001  -0.000   0.000   0.000   0.001   0.000
  -9.230  -0.000  -0.000  -0.001  -0.000   0.000   0.000   0.001   0.000
  -9.208  -0.000  -0.000  -0.001  -0.000   0.000   0.000   0.001   0.000
  -9.186  -0.000  -0.000  -0.001  -0.000   0.000   0.000   0.001   0.000
  -9.165  -0.000  -0.000  -0.001  -0.000   0.000   0.000   0.001   0.000
  -9.143  -0.000  -0.000  -0.001  -0.000   0.000   0.000   0.001   0.000
  -9.121  -0.000  -0.000  -0.001  -0.000   0.000   0.000   0.001   0.000
  -9.099  -0.000  -0.000  -0.001  -0.000   0.000   0.000   0.001   0.000
  -9.077  -0.000  -0.000  -0.001  -0.000   0.001   0.000   0.001   0.000
  -9.056  -0.000  -0.000  -0.001  -0.000   0.001   0.000   0.001   0.000
  -9.034  -0.000  -0.000  -0.001  -0.000   0.001   0.000   0.001   0.000
  -9.012  -0.000  -0.000  -0.001  -0.000   0.001   0.000   0.001   0.000
  -8.990  -0.000  -0.000  -0.001  -0.000   0.001   0.000   0.001   0.000
  -8.969  -0.000  -0.000  -0.001  -0.000   0.001   0.000   0.001   0.000
  -8.947  -0.000  -0.000  -0.001  -0.000   0.001   0.000   0.001   0.000
  -8.925  -0.000  -0.000  -0.001  -0.000   0.001   0.000   0.001   0.000
  -8.903  -0.000  -0.000  -0.001  -0.000   0.001   0.000   0.001   0.000
  -8.882  -0.000  -0.000  -0.001  -0.000   0.001   0.000   0.001   0.000
  -8.860  -0.000  -0.000  -0.001  -0.000   0.001   0.000   0.001   0.000
  -8.838  -0.000  -0.000  -0.001  -0.000   0.002   0.000   0.001   0.000
  -8.816  -0.000  -0.000  -0.001  -0.000   0.002   0.000   0.001   0.000
  -8.794  -0.000  -0.000  -0.001  -0.000   0.002   0.000   0.001   0.000
  -8.773  -0.000  -0.000  -0.001  -0.000   0.003   0.000   0.001   0.000
  -8.751  -0.000  -0.000  -0.001  -0.000   0.003   0.000   0.001   0.000
  -8.729  -0.000  -0.000  -0.001  -0.000   0.004   0.000   0.001   0.000
  -8.707  -0.000  -0.000  -0.001  -0.000   0.006   0.000   0.001   0.000
  -8.686  -0.000  -0.000  -0.001  -0.000   0.009   0.000   0.001   0.000
  -8.664  -0.000  -0.000  -0.001  -0.000   0.013   0.000   0.001   0.000
  -8.642  -0.001  -0.000  -0.001  -0.000   0.024   0.000   0.001   0.000
  -8.620  -0.001  -0.000  -0.001  -0.000   0.049   0.000   0.001   0.000
  -8.599  -0.001  -0.000  -0.001  -0.000   0.102   0.000   0.001   0.000
  -8.577  -0.001  -0.000  -0.001  -0.000   0.094   0.000   0.001   0.000
  -8.555  -0.001  -0.000  -0.001  -0.000   0.044   0.000   0.001   0.000
  -8.533  -0.001  -0.000  -0.001  -0.000   0.022   0.000   0.001   0.000
  -8.512  -0.001  -0.000  -0.001  -0.000   0.013   0.000   0.001   0.000
  -8.490  -0.001  -0.000  -0.001  -0.000   0.008   0.000   0.001   0.000
  -8.468  -0.001  -0.000  -0.001  -0.000   0.006   0.000   0.001   0.000
  -8.446  -0.001  -0.000  -0.001  -0.000   0.004   0.000   0.001   0.000
  -8.424  -0.001  -0.000  -0.001  -0.000   0.003   0.000   0.001   0.000
  -8.403  -0.002  -0.000  -0.001  -0.000   0.003   0.000   0.001   0.000
  -8.381  -0.002  -0.000  -0.001  -0.000   0.002   0.000   0.001   0.000
  -8.359  -0.002  -0.000  -0.001  -0.000   0.002   0.000   0.001   0.000
  -8.337  -0.003  -0.000  -0.001  -0.000   0.002   0.000   0.001   0.000
  -8.316  -0.004  -0.000  -0.001  -0.000   0.001   0.000   0.001   0.000
  -8.294  -0.005  -0.000  -0.001  -0.000   0.001   0.000   0.001   0.000
  -8.272  -0.008  -0.000  -0.001  -0.000   0.001   0.000   0.001   0.000
  -8.250  -0.012  -0.000  -0.001  -0.000   0.001   0.000   0.001   0.000
  -8.229  -0.020  -0.000  -0.001  -0.000   0.001   0.000   0.001   0.000
  -8.207  -0.040  -0.000  -0.001  -0.000   0.001   0.000   0.001   0.000
  -8.185  -0.087  -0.000  -0.001  -0.000   0.001   0.000   0.001   0.000
  -8.163  -0.106  -0.000  -0.001  -0.000   0.001   0.000   0.001   0.000
  -8.141  -0.053  -0.000  -0.001  -0.000   0.001   0.000   0.001   0.000
  -8.120  -0.026  -0.000  -0.001  -0.000   0.001   0.000   0.001   0.000
  -8.098  -0.014  -0.000  -0.001  -0.000   0.001   0.000   0.001   0.000
  -8.076  -0.009  -0.000  -0.001  -0.000   0.001   0.000   0.001   0.000
  -8.054  -0.006  -0.000  -0.001  -0.000   0.001   0.000   0.001   0.000
  -8.033  -0.004  -0.000  -0.001  -0.000   0.001   0.000   0.001   0.000
  -8.011  -0.003  -0.000  -0.001  -0.000   0.001   0.000   0.001   0.000
  -7.989  -0.003  -0.000  -0.001  -0.000   0.001   0.000   0.001   0.000
  -7.967  -0.002  -0.000  -0.001  -0.000   0.001   0.000   0.001   0.000
  -7.946  -0.002  -0.000  -0.001  -0.000   0.001   0.000   0.001   0.000
  -7.924  -0.002  -0.000  -0.001  -0.000   0.001   0.000   0.001   0.000
  -7.902  -0.001  -0.000  -0.001  -0.000   0.001   0.000   0.001   0.000
  -7.880  -0.001  -0.000  -0.001  -0.000   0.001   0.000   0.001   0.000
  -7.858  -0.001  -0.000  -0.001  -0.000   0.001   0.000   0.001   0.000
  -7.837  -0.001  -0.000  -0.001  -0.000   0.001   0.000   0.001   0.000
  -7.815  -0.001  -0.000  -0.001  -0.000   0.001   0.000   0.001   0.000
  -7.793  -0.001  -0.000  -0.001  -0.000   0.001   0.000   0.002   0.000
  -7.771  -0.001  -0.000  -0.001  -0.000   0.001   0.000   0.002   0.000
  -7.750  -0.001  -0.000  -0.001  -0.000   0.001   0.000   0.002   0.000
  -7.728  -0.001  -0.000  -0.001  -0.000   0.001   0.000   0.002   0.000
  -7.706  -0.001  -0.000  -0.001  -0.000   0.001   0.000   0.002   0.000
  -7.684  -0.001  -0.000  -0.001  -0.000   0.001   0.000   0.002   0.000
  -7.663  -0.001  -0.000  -0.001  -0.000   0.001   0.000   0.002   0.000
  -7.641  -0.001  -0.000  -0.001  -0.000   0.001   0.000   0.002   0.000
  -7.619  -0.001  -0.000  -0.001  -0.000   0.001   0.000   0.002   0.000
  -7.597  -0.001  -0.000  -0.001  -0.000   0.001   0.000   0.002   0.000
  -7.575  -0.001  -0.000  -0.001  -0.000   0.001   0.000   0.002   0.000
  -7.554  -0.001  -0.000  -0.001  -0.000   0.001   0.000   0.002   0.000
  -7.532  -0.001  -0.000  -0.001  -0.000   0.001   0.000   0.002   0.000
  -7.510  -0.001  -0.000  -0.001  -0.000   0.001   0.000   0.002   0.000
  -7.488  -0.001  -0.000  -0.001  -0.000   0.001   0.000   0.002   0.000
  -7.467  -0.001  -0.000  -0.001  -0.000   0.001   0.000   0.002   0.000
  -7.445  -0.001  -0.000  -0.001  -0.000   0.001   0.000   0.002   0.000
  -7.423  -0.001  -0.000  -0.001  -0.000   0.001   0.000   0.002   0.000
  -7.401  -0.001  -0.000  -0.001  -0.000   0.001   0.000   0.002   0.000
  -7.380  -0.001  -0.000  -0.001  -0.000   0.001   0.000   0.002   0.000
  -7.358  -0.001  -0.000  -0.001  -0.000   0.001   0.000   0.002   0.000
  -7.336  -0.001  -0.000  -0.001  -0.000   0.001   0.000   0.002   0.000
  -7.314  -0.001  -0.000  -0.001  -0.000   0.001   0.000   0.002   0.000
  -7.292  -0.001  -0.000  -0.001  -0.000   0.001   0.000   0.002   0.000
  -7.271  -0.001  -0.000  -0.001  -0.000   0.001   0.000   0.002   0.000
  -7.249  -0.001  -0.000  -0.001  -0.000   0.001   0.000   0.002   0.000
  -7.227  -0.001  -0.000  -0.001  -0.000   0.001   0.000   0.002   0.000
  -7.205  -0.001  -0.000  -0.001  -0.000   0.001   0.000   0.002   0.000
  -7.184  -0.001  -0.000  -0.001  -0.000   0.001   0.000   0.002   0.000
  -7.162  -0.001  -0.000  -0.001  -0.000   0.001   0.000   0.002   0.000
  -7.140  -0.001  -0.000  -0.001  -0.000   0.001   0.000   0.002   0.000
  -7.118  -0.001  -0.000  -0.001  -0.000   0.001   0.000   0.002   0.000
  -7.097  -0.001  -0.000  -0.001  -0.000   0.002   0.000   0.002   0.000
  -7.075  -0.001  -0.000  -0.001  -0.000   0.002   0.001   0.002   0.000
  -7.053  -0.001  -0.000  -0.001  -0.000   0.002   0.001   0.002   0.000
  -7.031  -0.001  -0.000  -0.001  -0.000   0.002   0.001   0.002   0.000
  -7.009  -0.001  -0.000  -0.001  -0.000   0.002   0.001   0.002   0.000
  -6.988  -0.001  -0.000  -0.001  -0.000   0.002   0.001   0.002   0.000
  -6.966  -0.001  -0.000  -0.001  -0.000   0.002   0.001   0.003   0.000
  -6.944  -0.001  -0.000  -0.001  -0.000   0.002   0.001   0.003   0.000
  -6.922  -0.001  -0.000  -0.001  -0.000   0.003   0.001   0.003   0.000
  -6.901  -0.001  -0.000  -0.001  -0.000   0.003   0.001   0.003   0.000
  -6.879  -0.001  -0.000  -0.001  -0.000   0.003   0.001   0.003   0.000
  -6.857  -0.001  -0.000  -0.001  -0.000   0.003   0.001   0.003   0.000
  -6.835  -0.001  -0.000  -0.001  -0.000   0.004   0.001   0.003   0.000
  -6.814  -0.001  -0.000  -0.001  -0.000   0.004   0.001   0.003   0.000
  -6.792  -0.001  -0.000  -0.001  -0.000   0.004   0.001   0.003   0.000
  -6.770  -0.001  -0.000  -0.001  -0.000   0.005   0.001   0.003   0.000
  -6.748  -0.001  -0.000  -0.001  -0.000   0.005   0.001   0.003   0.000
  -6.726  -0.001  -0.000  -0.001  -0.000   0.006   0.001   0.003   0.000
  -6.705  -0.001  -0.000  -0.001  -0.000   0.007   0.002   0.004   0.000
  -6.683  -0.001  -0.000  -0.001  -0.000   0.007   0.002   0.004   0.000
  -6.661  -0.001  -0.000  -0.001  -0.000   0.009   0.002   0.004   0.000
  -6.639  -0.001  -0.000  -0.001  -0.000   0.010   0.002   0.004   0.000
  -6.618  -0.002  -0.000  -0.001  -0.000   0.012   0.003   0.005   0.000
  -6.596  -0.002  -0.001  -0.001  -0.000   0.014   0.003   0.005   0.000
  -6.574  -0.002  -0.001  -0.001  -0.000   0.017   0.004   0.006   0.000
  -6.552  -0.002  -0.001  -0.001  -0.000   0.021   0.005   0.006   0.000
  -6.531  -0.002  -0.001  -0.001  -0.000   0.026   0.006   0.007   0.000
  -6.509  -0.002  -0.001  -0.001  -0.000   0.035   0.008   0.009   0.000
  -6.487  -0.002  -0.001  -0.002  -0.000   0.047   0.011   0.011   0.000
  -6.465  -0.002  -0.001  -0.002  -0.000   0.068   0.016   0.015   0.000
  -6.443  -0.003  -0.001  -0.002  -0.000   0.106   0.024   0.021   0.000
  -6.422  -0.003  -0.001  -0.002  -0.000   0.184   0.042   0.035   0.000
  -6.400  -0.003  -0.001  -0.002  -0.000   0.369   0.084   0.067   0.000
  -6.378  -0.003  -0.001  -0.002  -0.000   0.795   0.181   0.141   0.000
  -6.356  -0.003  -0.001  -0.002  -0.000   0.926   0.210   0.163   0.000
  -6.335  -0.004  -0.001  -0.002  -0.000   0.459   0.104   0.083   0.000
  -6.313  -0.004  -0.001  -0.002  -0.000   0.220   0.050   0.041   0.000
  -6.291  -0.005  -0.001  -0.002  -0.000   0.122   0.028   0.024   0.000
  -6.269  -0.005  -0.001  -0.002  -0.000   0.076   0.018   0.017   0.000
  -6.248  -0.006  -0.001  -0.002  -0.000   0.052   0.012   0.012   0.000
  -6.226  -0.006  -0.002  -0.002  -0.000   0.038   0.009   0.010   0.000
  -6.204  -0.007  -0.002  -0.002  -0.000   0.028   0.007   0.008   0.000
  -6.182  -0.008  -0.002  -0.002  -0.000   0.022   0.005   0.007   0.000
  -6.161  -0.009  -0.002  -0.003  -0.000   0.018   0.004   0.007   0.000
  -6.139  -0.011  -0.003  -0.003  -0.000   0.015   0.004   0.006   0.000
  -6.117  -0.013  -0.003  -0.003  -0.000   0.012   0.003   0.006   0.000
  -6.095  -0.016  -0.004  -0.003  -0.000   0.011   0.003   0.006   0.000
  -6.073  -0.019  -0.005  -0.004  -0.000   0.009   0.002   0.005   0.000
  -6.052  -0.024  -0.006  -0.004  -0.000   0.008   0.002   0.005   0.000
  -6.030  -0.032  -0.008  -0.005  -0.000   0.007   0.002   0.005   0.000
  -6.008  -0.043  -0.010  -0.006  -0.000   0.006   0.002   0.005   0.000
  -5.986  -0.060  -0.015  -0.008  -0.000   0.006   0.002   0.005   0.000
  -5.965  -0.091  -0.022  -0.012  -0.000   0.005   0.001   0.005   0.000
  -5.943  -0.151  -0.036  -0.019  -0.000   0.005   0.001   0.005   0.000
  -5.921  -0.286  -0.069  -0.034  -0.000   0.004   0.001   0.005   0.000
  -5.899  -0.621  -0.149  -0.072  -0.000   0.004   0.001   0.005   0.000
  -5.878  -1.017  -0.243  -0.116  -0.000   0.004   0.001   0.005   0.000
  -5.856  -0.619  -0.148  -0.071  -0.000   0.003   0.001   0.005   0.000
  -5.834  -0.285  -0.068  -0.034  -0.000   0.003   0.001   0.005   0.000
  -5.812  -0.150  -0.036  -0.019  -0.000   0.003   0.001   0.006   0.000
  -5.790  -0.091  -0.022  -0.012  -0.000   0.003   0.001   0.006   0.000
  -5.769  -0.060  -0.015  -0.009  -0.000   0.003   0.001   0.006   0.000
  -5.747  -0.042  -0.010  -0.007  -0.000   0.003   0.001   0.006   0.000
  -5.725  -0.032  -0.008  -0.005  -0.000   0.002   0.001   0.006   0.000
  -5.703  -0.024  -0.006  -0.005  -0.000   0.002   0.001   0.006   0.000
  -5.682  -0.019  -0.005  -0.004  -0.000   0.002   0.001   0.006   0.000
  -5.660  -0.016  -0.004  -0.004  -0.000   0.002   0.001   0.006   0.000
  -5.638  -0.013  -0.003  -0.003  -0.000   0.002   0.001   0.007   0.000
  -5.616  -0.011  -0.003  -0.003  -0.000   0.002   0.001   0.007   0.000
  -5.595  -0.010  -0.002  -0.003  -0.000   0.002   0.001   0.007   0.000
  -5.573  -0.008  -0.002  -0.003  -0.000   0.002   0.001   0.007   0.000
  -5.551  -0.007  -0.002  -0.003  -0.000   0.002   0.001   0.007   0.000
  -5.529  -0.006  -0.002  -0.003  -0.000   0.002   0.001   0.008   0.000
  -5.507  -0.006  -0.002  -0.003  -0.000   0.002   0.001   0.008   0.000
  -5.486  -0.005  -0.001  -0.003  -0.000   0.002   0.001   0.008   0.000
  -5.464  -0.005  -0.001  -0.003  -0.000   0.002   0.001   0.009   0.000
  -5.442  -0.004  -0.001  -0.003  -0.000   0.002   0.001   0.009   0.000
  -5.420  -0.004  -0.001  -0.003  -0.000   0.002   0.001   0.009   0.000
  -5.399  -0.004  -0.001  -0.003  -0.000   0.002   0.001   0.010   0.000
  -5.377  -0.003  -0.001  -0.003  -0.000   0.002   0.001   0.010   0.000
  -5.355  -0.003  -0.001  -0.003  -0.000   0.002   0.001   0.011   0.000
  -5.333  -0.003  -0.001  -0.003  -0.000   0.002   0.001   0.012   0.000
  -5.312  -0.003  -0.001  -0.003  -0.000   0.003   0.001   0.012   0.000
  -5.290  -0.003  -0.001  -0.003  -0.000   0.003   0.001   0.013   0.000
  -5.268  -0.002  -0.001  -0.003  -0.000   0.003   0.001   0.014   0.000
  -5.246  -0.002  -0.001  -0.003  -0.000   0.003   0.001   0.015   0.000
  -5.224  -0.002  -0.001  -0.003  -0.000   0.003   0.001   0.017   0.000
  -5.203  -0.002  -0.001  -0.003  -0.000   0.004   0.001   0.018   0.000
  -5.181  -0.002  -0.001  -0.003  -0.000   0.004   0.002   0.020   0.000
  -5.159  -0.002  -0.001  -0.003  -0.000   0.005   0.002   0.023   0.000
  -5.137  -0.002  -0.001  -0.003  -0.000   0.005   0.002   0.026   0.000
  -5.116  -0.002  -0.001  -0.003  -0.000   0.006   0.002   0.031   0.000
  -5.094  -0.002  -0.001  -0.003  -0.000   0.007   0.002   0.037   0.000
  -5.072  -0.002  -0.001  -0.003  -0.000   0.009   0.003   0.046   0.000
  -5.050  -0.002  -0.001  -0.003  -0.000   0.012   0.003   0.059   0.000
  -5.029  -0.002  -0.001  -0.003  -0.000   0.016   0.003   0.082   0.000
  -5.007  -0.002  -0.001  -0.003  -0.000   0.024   0.004   0.125   0.000
  -4.985  -0.001  -0.001  -0.003  -0.000   0.040   0.005   0.218   0.000
  -4.963  -0.001  -0.001  -0.003  -0.000   0.080   0.006   0.446   0.000
  -4.941  -0.001  -0.001  -0.003  -0.000   0.141   0.008   0.799   0.000
  -4.920  -0.001  -0.001  -0.003  -0.000   0.106   0.010   0.575   0.000
  -4.898  -0.001  -0.001  -0.003  -0.000   0.063   0.015   0.297   0.000
  -4.876  -0.001  -0.001  -0.003  -0.000   0.055   0.023   0.200   0.000
  -4.854  -0.001  -0.001  -0.003  -0.000   0.073   0.040   0.193   0.000
  -4.833  -0.001  -0.001  -0.004  -0.000   0.132   0.083   0.272   0.000
  -4.811  -0.001  -0.001  -0.004  -0.000   0.257   0.168   0.484   0.000
  -4.789  -0.001  -0.001  -0.004  -0.000   0.228   0.150   0.584   0.000
  -4.767  -0.001  -0.001  -0.004  -0.000   0.108   0.070   0.356   0.000
  -4.746  -0.001  -0.001  -0.004  -0.000   0.056   0.036   0.183   0.000
  -4.724  -0.001  -0.001  -0.004  -0.000   0.033   0.021   0.111   0.000
  -4.702  -0.002  -0.001  -0.004  -0.000   0.022   0.014   0.078   0.000