  -4.082   0.175   0.068   0.011   0.003
  -4.075   0.181   0.069   0.013   0.003
  -4.068   0.206   0.075   0.015   0.003
  -4.061   0.256   0.091   0.020   0.004
  -4.054   0.350   0.121   0.028   0.005
  -4.048   0.525   0.178   0.043   0.007
  -4.041   0.831   0.278   0.068   0.010
  -4.034   1.175   0.390   0.096   0.014
  -4.027   1.127   0.374   0.092   0.014
  -4.020   0.759   0.253   0.062   0.009
  -4.014   0.472   0.159   0.039   0.006
  -4.007   0.308   0.104   0.026   0.004
  -4.000   0.214   0.074   0.018   0.003
  -3.993   0.159   0.055   0.014   0.002
  -3.986   0.124   0.044   0.011   0.002
  -3.980   0.100   0.036   0.009   0.002
  -3.973   0.084   0.031   0.008   0.001
  -3.966   0.073   0.027   0.007   0.001
  -3.959   0.065   0.024   0.006   0.001
  -3.952   0.059   0.022   0.006   0.001
  -3.946   0.055   0.021   0.006   0.001
  -3.939   0.052   0.020   0.006   0.001
  -3.932   0.051   0.020   0.006   0.001
  -3.925   0.050   0.020   0.006   0.001
  -3.918   0.050   0.020   0.006   0.001
  -3.912   0.052   0.021   0.006   0.001
  -3.905   0.054   0.022   0.007   0.001
  -3.898   0.058   0.024   0.007   0.001
  -3.891   0.063   0.026   0.008   0.001
  -3.884   0.069   0.029   0.009   0.002
  -3.878   0.079   0.033   0.010   0.002
  -3.871   0.091   0.038   0.012   0.002
  -3.864   0.109   0.046   0.015   0.002
  -3.857   0.133   0.056   0.018   0.003
  -3.850   0.168   0.071   0.022   0.004
  -3.844   0.221   0.093   0.029   0.005
  -3.837   0.305   0.128   0.040   0.007
  -3.830   0.446   0.186   0.057   0.009
  -3.823   0.693   0.289   0.088   0.015
  -3.816   1.130   0.471   0.141   0.023
  -3.809   1.728   0.720   0.214   0.036
  -3.803   1.890   0.788   0.235   0.039
  -3.796   1.358   0.567   0.173   0.029
  -3.789   0.834   0.350   0.113   0.019
  -3.782   0.523   0.222   0.080   0.013
  -3.775   0.349   0.152   0.066   0.011
  -3.769   0.247   0.112   0.065   0.010
  -3.762   0.184   0.092   0.079   0.012
  -3.755   0.144   0.085   0.110   0.017
  -3.748   0.118   0.084   0.147   0.022
  -3.741   0.097   0.074   0.138   0.021
  -3.735   0.079   0.055   0.094   0.014
  -3.728   0.066   0.041   0.059   0.009
  -3.721   0.055   0.032   0.039   0.006
  -3.714   0.048   0.026   0.028   0.004
  -3.707   0.042   0.022   0.021   0.003
  -3.701   0.037   0.019   0.016   0.003
  -3.694   0.033   0.016   0.013   0.002
  -3.687   0.029   0.014   0.011   0.002
  -3.680   0.026   0.013   0.009   0.001
  -3.673   0.024   0.012   0.008   0.001
  -3.667   0.022   0.011   0.007   0.001
  -3.660   0.020   0.010   0.006   0.001
  -3.653   0.018   0.009   0.005   0.001
  -3.646   0.017   0.008   0.005   0.001
  -3.639   0.016   0.008   0.004   0.001
  -3.633   0.015   0.007   0.004   0.001
  -3.626   0.014   0.007   0.003   0.001
  -3.619   0.013   0.006   0.003   0.001
  -3.612   0.012   0.006   0.003   0.001
  -3.605   0.011   0.006   0.003   0.000
  -3.599   0.011   0.005   0.003   0.000
  -3.592   0.010   0.005   0.002   0.000
  -3.585   0.010   0.005   0.002   0.000
  -3.578   0.009   0.005   0.002   0.000
  -3.571   0.009   0.005   0.002   0.000
  -3.565   0.008   0.004   0.002   0.000
  -3.558   0.008   0.004   0.002   0.000
  -3.551   0.008   0.004   0.002   0.000
  -3.544   0.007   0.004   0.002   0.000
  -3.537   0.007   0.004   0.001   0.000
  -3.531   0.007   0.004   0.001   0.000
  -3.524   0.006   0.004   0.001   0.000
  -3.517   0.006   0.004   0.001   0.000
  -3.510   0.006   0.003   0.001   0.000
  -3.503   0.006   0.003   0.001   0.000
  -3.497   0.005   0.003   0.001   0.000
  -3.490   0.005   0.003   0.001   0.000
  -3.483   0.005   0.003   0.001   0.000
  -3.476   0.005   0.003   0.001   0.000
  -3.469   0.005   0.003   0.001   0.000
  -3.463   0.005   0.003   0.001   0.000
  -3.456   0.004   0.003   0.001   0.000
  -3.449   0.004   0.003   0.001   0.000
  -3.442   0.004   0.003   0.001   0.000
  -3.435   0.004   0.003   0.001   0.000
  -3.429   0.004   0.003   0.001   0.000
  -3.422   0.004   0.003   0.001   0.000
  -3.415   0.004   0.003   0.001   0.000
  -3.408   0.004   0.003   0.001   0.000
  -3.401   0.003   0.003   0.001   0.000
  -3.395   0.003   0.003   0.001   0.000
  -3.388   0.003   0.003   0.001   0.000
  -3.381   0.003   0.003   0.001   0.000
  -3.374   0.003   0.003   0.001   0.000
  -3.367   0.003   0.003   0.001   0.000
  -3.361   0.003   0.003   0.001   0.000
  -3.354   0.003   0.003   0.001   0.000
  -3.347   0.003   0.003   0.001   0.000
  -3.340   0.003   0.003   0.001   0.000
  -3.333   0.003   0.003   0.001   0.000
  -3.327   0.003   0.003   0.001   0.000
  -3.320   0.003   0.003   0.001   0.000
  -3.313   0.003   0.004   0.001   0.000
  -3.306   0.002   0.004   0.001   0.000
  -3.299   0.002   0.004   0.001   0.000
  -3.292   0.002   0.004   0.001   0.000
  -3.286   0.002   0.004   0.001   0.000
  -3.279   0.002   0.004   0.001   0.000
  -3.272   0.002   0.005   0.001   0.000
  -3.265   0.002   0.005   0.001   0.000
  -3.258   0.002   0.005   0.001   0.000
  -3.252   0.002   0.005   0.001   0.000
  -3.245   0.002   0.006   0.001   0.000
  -3.238   0.002   0.006   0.001   0.000
  -3.231   0.002   0.007   0.001   0.000
  -3.224   0.002   0.007   0.001   0.000
  -3.218   0.002   0.008   0.001   0.000
  -3.211   0.002   0.009   0.001   0.000
  -3.204   0.002   0.010   0.001   0.000
  -3.197   0.002   0.011   0.001   0.000
  -3.190   0.002   0.012   0.001   0.001
  -3.184   0.002   0.014   0.001   0.001
  -3.177   0.002   0.017   0.001   0.001
  -3.170   0.002   0.020   0.001   0.001
  -3.163   0.002   0.024   0.001   0.001
  -3.156   0.002   0.029   0.001   0.001
  -3.150   0.002   0.037   0.001   0.001
  -3.143   0.002   0.049   0.001   0.002
  -3.136   0.002   0.067   0.002   0.003
  -3.129   0.002   0.097   0.002   0.004
  -3.122   0.001   0.149   0.003   0.006
  -3.116   0.001   0.242   0.005   0.009
  -3.109   0.001   0.385   0.008   0.015
  -3.102   0.001   0.471   0.009   0.018
  -3.095   0.001   0.370   0.007   0.014
  -3.088   0.001   0.231   0.005   0.009
  -3.082   0.001   0.143   0.003   0.006
  -3.075   0.001   0.094   0.002   0.004
  -3.068   0.001   0.065   0.002   0.003
  -3.061   0.001   0.048   0.001   0.002
  -3.054   0.001   0.037   0.001   0.001
  -3.048   0.001   0.029   0.001   0.001
  -3.041   0.001   0.023   0.001   0.001
  -3.034   0.001   0.020   0.001   0.001
  -3.027   0.001   0.017   0.001   0.001
  -3.020   0.001   0.014   0.001   0.001
  -3.014   0.001   0.012   0.001   0.001
  -3.007   0.001   0.011   0.001   0.000
  -3.000   0.001   0.010   0.001   0.000
  -2.993   0.001   0.009   0.001   0.000
  -2.986   0.001   0.008   0.001   0.000
  -2.980   0.001   0.007   0.001   0.000
  -2.973   0.001   0.007   0.001   0.000
  -2.966   0.001   0.006   0.001   0.000
  -2.959   0.001   0.006   0.001   0.000
  -2.952   0.001   0.006   0.001   0.000
  -2.946   0.001   0.005   0.001   0.000
  -2.939   0.001   0.005   0.001   0.000
  -2.932   0.001   0.005   0.001   0.000
  -2.925   0.001   0.005   0.001   0.000
  -2.918   0.001   0.005   0.001   0.000
  -2.912   0.001   0.004   0.001   0.000
  -2.905   0.001   0.004   0.001   0.000
  -2.898   0.001   0.004   0.001   0.000
  -2.891   0.001   0.004   0.001   0.000
  -2.884   0.001   0.004   0.001   0.000
  -2.878   0.001   0.004   0.001   0.000
  -2.871   0.001   0.004   0.001   0.000
  -2.864   0.001   0.004   0.001   0.000
  -2.857   0.001   0.004   0.001   0.000
  -2.850   0.001   0.004   0.001   0.000
  -2.844   0.001   0.004   0.001   0.000
  -2.837   0.001   0.004   0.001   0.000
  -2.830   0.001   0.004   0.001   0.000
  -2.823   0.001   0.004   0.001   0.000
  -2.816   0.001   0.004   0.001   0.000
  -2.810   0.001   0.004   0.001   0.000
  -2.803   0.001   0.004   0.001   0.000
  -2.796   0.001   0.004   0.001   0.000
  -2.789   0.001   0.004   0.001   0.000
  -2.782   0.001   0.004   0.001   0.000
  -2.775   0.001   0.004   0.001   0.000
  -2.769   0.001   0.004   0.001   0.000
  -2.762   0.001   0.004   0.001   0.000
  -2.755   0.001   0.004   0.001   0.000
  -2.748   0.001   0.005   0.001   0.000
  -2.741   0.001   0.005   0.001   0.000
  -2.735   0.001   0.005   0.001   0.000
  -2.728   0.001   0.005   0.001   0.000
  -2.721   0.001   0.005   0.001   0.000
  -2.714   0.001   0.005   0.001   0.000
  -2.707   0.001   0.006   0.001   0.000
  -2.701   0.001   0.006   0.001   0.000
  -2.694   0.001   0.006   0.001   0.000
  -2.687   0.001   0.006   0.001   0.000
  -2.680   0.001   0.007   0.001   0.000
  -2.673   0.001   0.007   0.001   0.000
  -2.667   0.001   0.007   0.001   0.000
  -2.660   0.001   0.008   0.002   0.000
  -2.653   0.001   0.008   0.002   0.000
  -2.646   0.001   0.009   0.002   0.000
  -2.639   0.001   0.009   0.002   0.000
  -2.633   0.001   0.010   0.002   0.000
  -2.626   0.001   0.010   0.002   0.000
  -2.619   0.001   0.011   0.002   0.000
  -2.612   0.001   0.012   0.002   0.001
  -2.605   0.001   0.013   0.003   0.001
  -2.599   0.001   0.014   0.003   0.001
  -2.592   0.001   0.016   0.003   0.001
  -2.585   0.001   0.017   0.003   0.001
  -2.578   0.001   0.019   0.004   0.001
  -2.571   0.001   0.021   0.004   0.001
  -2.565   0.001   0.023   0.004   0.001
  -2.558   0.001   0.026   0.005   0.001
  -2.551   0.001   0.030   0.006   0.001
  -2.544   0.001   0.034   0.006   0.001
  -2.537   0.001   0.040   0.008   0.002
  -2.531   0.001   0.047   0.009   0.002
  -2.524   0.001   0.056   0.011   0.002
  -2.517   0.001   0.069   0.013   0.003
  -2.510   0.001   0.086   0.016   0.003
  -2.503   0.001   0.109   0.020   0.004
  -2.497   0.001   0.144   0.027   0.006
  -2.490   0.001   0.199   0.037   0.008
  -2.483   0.001   0.288   0.053   0.011
  -2.476   0.001   0.442   0.082   0.017
  -2.469   0.001   0.717   0.133   0.027
  -2.463   0.001   1.145   0.212   0.044
  -2.456   0.001   1.424   0.263   0.054
  -2.449   0.001   1.135   0.210   0.043
  -2.442   0.001   0.709   0.131   0.027
  -2.435   0.001   0.437   0.081   0.017
  -2.429   0.001   0.285   0.053   0.011
  -2.422   0.001   0.198   0.037   0.008
  -2.415   0.001   0.144   0.027   0.006
  -2.408   0.001   0.110   0.020   0.004
  -2.401   0.001   0.086   0.016   0.003
  -2.395   0.001   0.069   0.013   0.003
  -2.388   0.001   0.057   0.011   0.002
  -2.381   0.001   0.048   0.009   0.002
  -2.374   0.001   0.041   0.008   0.002
  -2.367   0.001   0.036   0.007   0.001
  -2.361   0.001   0.032   0.006   0.001
  -2.354   0.001   0.028   0.005   0.001
  -2.347   0.001   0.026   0.005   0.001
  -2.340   0.001   0.023   0.004   0.001
  -2.333   0.001   0.022   0.004   0.001
  -2.327   0.001   0.020   0.004   0.001
  -2.320   0.001   0.019   0.004   0.001
  -2.313   0.001   0.018   0.003   0.001
  -2.306   0.001   0.017   0.003   0.001
  -2.299   0.001   0.017   0.003   0.001
  -2.293   0.001   0.016   0.003   0.001
  -2.286   0.001   0.016   0.003   0.001
  -2.279   0.001   0.016   0.003   0.001
  -2.272   0.001   0.016   0.003   0.001
  -2.265   0.001   0.016   0.003   0.001
  -2.258   0.001   0.017   0.003   0.001
  -2.252   0.001   0.018   0.003   0.001
  -2.245   0.001   0.019   0.003   0.001
  -2.238   0.001   0.020   0.004   0.001
  -2.231   0.001   0.022   0.004   0.001
  -2.224   0.001   0.024   0.004   0.001
  -2.218   0.001   0.028   0.005   0.001
  -2.211   0.001   0.032   0.006   0.002
  -2.204   0.001   0.037   0.007   0.002
  -2.197   0.001   0.045   0.008   0.002
  -2.190   0.001   0.056   0.010   0.003
  -2.184   0.001   0.073   0.012   0.004
  -2.177   0.001   0.098   0.016   0.005
  -2.170   0.001   0.139   0.023   0.007
  -2.163   0.001   0.210   0.035   0.010
  -2.156   0.001   0.336   0.056   0.017
  -2.150   0.001   0.542   0.090   0.027
  -2.143   0.001   0.717   0.118   0.036
  -2.136   0.001   0.612   0.101   0.030
  -2.129   0.001   0.391   0.065   0.019
  -2.122   0.001   0.240   0.040   0.012
  -2.116   0.001   0.156   0.026   0.008
  -2.109   0.001   0.107   0.018   0.005
  -2.102   0.001   0.078   0.013   0.004
  -2.095   0.001   0.059   0.010   0.003
  -2.088   0.001   0.046   0.008   0.002
  -2.082   0.001   0.038   0.007   0.002
  -2.075   0.001   0.031   0.006   0.002
  -2.068   0.001   0.026   0.005   0.001
  -2.061   0.001   0.022   0.004   0.001
  -2.054   0.001   0.019   0.004   0.001
  -2.048   0.001   0.017   0.003   0.001
  -2.041   0.001   0.015   0.003   0.001
  -2.034   0.001   0.013   0.003   0.001
  -2.027   0.001   0.012   0.002   0.001
  -2.020   0.001   0.011   0.002   0.001
  -2.014   0.001   0.010   0.002   0.001
  -2.007   0.001   0.009   0.002   0.000
  -2.000   0.000   0.009   0.002   0.000
  -1.993   0.000   0.008   0.002   0.000
  -1.986   0.000   0.007   0.002   0.000
  -1.980   0.000   0.007   0.002   0.000
  -1.973   0.000   0.007   0.002   0.000
  -1.966   0.000   0.006   0.002   0.000
  -1.959   0.000   0.006   0.002   0.000
  -1.952   0.000   0.006   0.002   0.000
  -1.946   0.000   0.005   0.002   0.000
  -1.939   0.000   0.005   0.001   0.000
  -1.932   0.000   0.005   0.001   0.000
  -1.925   0.000   0.005   0.001   0.000
  -1.918   0.000   0.005   0.001   0.000
  -1.912   0.000   0.004   0.001   0.000
  -1.905   0.000   0.004   0.001   0.000
  -1.898   0.000   0.004   0.001   0.000
  -1.891   0.000   0.004   0.001   0.000
  -1.884   0.000   0.004   0.001   0.000
  -1.878   0.000   0.004   0.001   0.000
  -1.871   0.000   0.004   0.001   0.000
  -1.864   0.000   0.004   0.002   0.000
  -1.857   0.000   0.004   0.002   0.000
  -1.850   0.000   0.004   0.002   0.000
  -1.844   0.000   0.004   0.002   0.000
  -1.837   0.000   0.004   0.002   0.000
  -1.830   0.000   0.004   0.002   0.000
  -1.823   0.000   0.004   0.002   0.000
  -1.816   0.000   0.004   0.002   0.000
  -1.810   0.000   0.004   0.002   0.000
  -1.803   0.000   0.004   0.002   0.000
  -1.796   0.000   0.004   0.002   0.000
  -1.789   0.000   0.004   0.002   0.000
  -1.782   0.000   0.004   0.002   0.000
  -1.775   0.000   0.004   0.002   0.000
  -1.769   0.000   0.004   0.002   0.000
  -1.762   0.000   0.004   0.002   0.000
  -1.755   0.000   0.004   0.003   0.000
  -1.748   0.000   0.004   0.003   0.000
  -1.741   0.000   0.004   0.003   0.000
  -1.735   0.000   0.004   0.003   0.000
  -1.728   0.000   0.005   0.003   0.000
  -1.721   0.000   0.005   0.003   0.000
  -1.714   0.000   0.005   0.004   0.000
  -1.707   0.000   0.005   0.004   0.000
  -1.701   0.000   0.006   0.004   0.000
  -1.694   0.000   0.006   0.005   0.000
  -1.687   0.000   0.007   0.005   0.001
  -1.680   0.000   0.007   0.006   0.001
  -1.673   0.000   0.008   0.007   0.001
  -1.667   0.000   0.009   0.007   0.001
  -1.660   0.000   0.010   0.009   0.001
  -1.653   0.000   0.012   0.010   0.001
  -1.646   0.000   0.014   0.012   0.001
  -1.639   0.000   0.017   0.014   0.001
  -1.633   0.000   0.020   0.017   0.002
  -1.626   0.000   0.025   0.021   0.002
  -1.619   0.000   0.032   0.027   0.002
  -1.612   0.000   0.043   0.036   0.003
  -1.605   0.000   0.061   0.051   0.005
  -1.599   0.000   0.091   0.076   0.007
  -1.592   0.000   0.144   0.120   0.011
  -1.585   0.000   0.234   0.195   0.018
  -1.578   0.000   0.326   0.272   0.025
  -1.571   0.000   0.300   0.251   0.023
  -1.565   0.000   0.197   0.165   0.015
  -1.558   0.000   0.122   0.103   0.009
  -1.551   0.000   0.079   0.068   0.006
  -1.544   0.000   0.055   0.048   0.004
  -1.537   0.000   0.040   0.036   0.003
  -1.531   0.000   0.032   0.030   0.002
  -1.524   0.000   0.026   0.026   0.002
  -1.517   0.000   0.022   0.024   0.002
  -1.510   0.001   0.020   0.023   0.002
  -1.503   0.001   0.019   0.024   0.002
  -1.497   0.001   0.020   0.027   0.002
  -1.490   0.001   0.021   0.031   0.002
  -1.483   0.001   0.025   0.040   0.002
  -1.476   0.001   0.031   0.054   0.003
  -1.469   0.001   0.044   0.081   0.004
  -1.463   0.001   0.067   0.128   0.006
  -1.456   0.001   0.102   0.199   0.009
  -1.449   0.001   0.120   0.236   0.011
  -1.442   0.001   0.092   0.181   0.008
  -1.435   0.001   0.058   0.113   0.005
  -1.429   0.001   0.037   0.071   0.003
  -1.422   0.001   0.026   0.047   0.002
  -1.415   0.001   0.019   0.033   0.002
  -1.408   0.001   0.014   0.025   0.001
  -1.401   0.001   0.012   0.019   0.001
  -1.395   0.001   0.010   0.016   0.001
  -1.388   0.001   0.008   0.013   0.001
  -1.381   0.001   0.007   0.011   0.001
  -1.374   0.001   0.006   0.009   0.001
  -1.367   0.001   0.006   0.008   0.001
  -1.361   0.001   0.005   0.007   0.000
  -1.354   0.001   0.005   0.006   0.000
  -1.347   0.001   0.004   0.006   0.000
  -1.340   0.001   0.004   0.005   0.000
  -1.333   0.001   0.004   0.005   0.000
  -1.327   0.001   0.004   0.005   0.000
  -1.320   0.001   0.003   0.004   0.000
  -1.313   0.001   0.003   0.004   0.000
  -1.306   0.001   0.003   0.004   0.000
  -1.299   0.001   0.003   0.004   0.000
  -1.293   0.001   0.003   0.003   0.000
  -1.286   0.001   0.003   0.003   0.000
  -1.279   0.001   0.003   0.003   0.000
  -1.272   0.001   0.003   0.003   0.000
  -1.265   0.001   0.003   0.003   0.000
  -1.258   0.001   0.003   0.003   0.000
  -1.252   0.001   0.003   0.003   0.000
  -1.245   0.001   0.003   0.003   0.000
  -1.238   0.001   0.003   0.003   0.000
  -1.231   0.001   0.003   0.003   0.000
  -1.224   0.001   0.003   0.003   0.000
  -1.218   0.001   0.003   0.003   0.000
  -1.211   0.001   0.003   0.003   0.000
  -1.204   0.001   0.003   0.003   0.000
  -1.197   0.001   0.003   0.003   0.000
  -1.190   0.001   0.003   0.003   0.000
  -1.184   0.001   0.003   0.004   0.000
  -1.177   0.001   0.003   0.004   0.001
  -1.170   0.001   0.003   0.004   0.001
  -1.163   0.001   0.003   0.004   0.001
  -1.156   0.001   0.004   0.004   0.001
  -1.150   0.001   0.004   0.005   0.001
  -1.143   0.001   0.004   0.005   0.001
  -1.136   0.001   0.004   0.005   0.001
  -1.129   0.001   0.005   0.006   0.001
  -1.122   0.001   0.005   0.007   0.001
  -1.116   0.001   0.006   0.007   0.001
  -1.109   0.001   0.007   0.008   0.001
  -1.102   0.001   0.007   0.009   0.001
  -1.095   0.001   0.008   0.011   0.002
  -1.088   0.001   0.010   0.013   0.002
  -1.082   0.001   0.012   0.015   0.002
  -1.075   0.001   0.014   0.018   0.003
  -1.068   0.001   0.017   0.023   0.003
  -1.061   0.001   0.022   0.029   0.004
  -1.054   0.001   0.028   0.038   0.006
  -1.048   0.001   0.039   0.052   0.008
  -1.041   0.001   0.056   0.075   0.011
  -1.034   0.001   0.085   0.116   0.017
  -1.027   0.001   0.138   0.187   0.028
  -1.020   0.001   0.220   0.300   0.045
  -1.014   0.001   0.276   0.376   0.057
  -1.007   0.001   0.222   0.302   0.046
  -1.000   0.001   0.139   0.189   0.029
  -0.993   0.001   0.086   0.117   0.018
  -0.986   0.001   0.056   0.076   0.011
  -0.980   0.001   0.039   0.052   0.008
  -0.973   0.001   0.028   0.038   0.006
  -0.966   0.001   0.022   0.029   0.004
  -0.959   0.001   0.017   0.023   0.003
  -0.952   0.001   0.014   0.018   0.003
  -0.946   0.001   0.011   0.015   0.002
  -0.939   0.001   0.010   0.013   0.002
  -0.932   0.001   0.008   0.011   0.002
  -0.925   0.001   0.007   0.009   0.001
  -0.918   0.001   0.006   0.008   0.001
  -0.912   0.001   0.006   0.007   0.001
  -0.905   0.001   0.005   0.006   0.001
  -0.898   0.001   0.004   0.006   0.001
  -0.891   0.001   0.004   0.005   0.001
  -0.884   0.001   0.004   0.005   0.001
  -0.878   0.001   0.003   0.004   0.001
  -0.871   0.001   0.003   0.004   0.001
  -0.864   0.001   0.003   0.004   0.001
  -0.857   0.001   0.003   0.003   0.001
  -0.850   0.001   0.003   0.003   0.000
  -0.844   0.001   0.002   0.003   0.000
  -0.837   0.001   0.002   0.003   0.000
  -0.830   0.001   0.002   0.002   0.000
  -0.823   0.001   0.002   0.002   0.000
  -0.816   0.001   0.002   0.002   0.000
  -0.810   0.001   0.002   0.002   0.000
  -0.803   0.001   0.002   0.002   0.000
  -0.796   0.001   0.002   0.002   0.000
  -0.789   0.001   0.002   0.002   0.000
  -0.782   0.001   0.002   0.002   0.000
  -0.776   0.001   0.002   0.002   0.000
  -0.769   0.001   0.001   0.002   0.000
  -0.762   0.001   0.001   0.001   0.000
  -0.755   0.001   0.001   0.001   0.000
  -0.748   0.001   0.001   0.001   0.000
  -0.741   0.001   0.001   0.001   0.000
  -0.735   0.001   0.001   0.001   0.000
  -0.728   0.001   0.001   0.001   0.000
  -0.721   0.001   0.001   0.001   0.000
  -0.714   0.001   0.001   0.001   0.000
  -0.707   0.001   0.001   0.001   0.000
  -0.701   0.001   0.001   0.001   0.000
  -0.694   0.001   0.001   0.001   0.000
  -0.687   0.001   0.001   0.001   0.000
  -0.680   0.001   0.001   0.001   0.000
  -0.673   0.001   0.001   0.001   0.000
  -0.667   0.001   0.001   0.001   0.000
  -0.660   0.001   0.001   0.001   0.000
  -0.653   0.001   0.001   0.001   0.000
  -0.646   0.001   0.001   0.001   0.000
  -0.639   0.001   0.001   0.001   0.000
  -0.633   0.001   0.001   0.001   0.000
  -0.626   0.001   0.001   0.001   0.000
  -0.619   0.001   0.001   0.001   0.000
  -0.612   0.001   0.001   0.001   0.000
  -0.605   0.001   0.001   0.001   0.000
  -0.599   0.001   0.001   0.001   0.000
  -0.592   0.001   0.001   0.001   0.000
  -0.585   0.001   0.001   0.001   0.000
  -0.578   0.001   0.001   0.001   0.000
  -0.571   0.001   0.001   0.001   0.000
  -0.565   0.001   0.001   0.001   0.000
  -0.558   0.001   0.001   0.001   0.000
  -0.551   0.001   0.001   0.001   0.000
  -0.544   0.001   0.001   0.001   0.000
  -0.537   0.001   0.001   0.001   0.000
  -0.531   0.001   0.001   0.001   0.000
  -0.524   0.001   0.001   0.001   0.000
  -0.517   0.001   0.001   0.001   0.000
  -0.510   0.001   0.001   0.001   0.000
  -0.503   0.001   0.001   0.001   0.000
  -0.497   0.001   0.001   0.001   0.000
  -0.490   0.001   0.001   0.001   0.000
  -0.483   0.001   0.001   0.001   0.000
  -0.476   0.001   0.001   0.001   0.000
  -0.469   0.001   0.001   0.001   0.000
  -0.463   0.001   0.001   0.001   0.000
  -0.456   0.001   0.001   0.001   0.000
  -0.449   0.001   0.001   0.001   0.000
  -0.442   0.001   0.001   0.001   0.000
  -0.435   0.001   0.001   0.001   0.000
  -0.429   0.001   0.001   0.001   0.000
  -0.422   0.001   0.001   0.001   0.000
  -0.415   0.001   0.001   0.001   0.000
  -0.408   0.001   0.001   0.001   0.000
  -0.401   0.001   0.001   0.001   0.000
  -0.395   0.001   0.001   0.001   0.000
  -0.388   0.001   0.001   0.001   0.000
  -0.381   0.001   0.001   0.001   0.000
  -0.374   0.001   0.001   0.001   0.000
  -0.367   0.001   0.001   0.001   0.000
  -0.361   0.001   0.001   0.001   0.000
  -0.354   0.001   0.001   0.001   0.001
  -0.347   0.001   0.001   0.001   0.001
  -0.340   0.001   0.001   0.002   0.001
  -0.333   0.001   0.001   0.002   0.001
  -0.327   0.001   0.001   0.002   0.001
  -0.320   0.001   0.001   0.002   0.001
  -0.313   0.001   0.002   0.003   0.001
  -0.306   0.001   0.002   0.003   0.002
  -0.299   0.001   0.002   0.004   0.002
  -0.293   0.001   0.003   0.006   0.003
  -0.286   0.001   0.003   0.008   0.004
  -0.279   0.001   0.004   0.011   0.005
  -0.272   0.001   0.007   0.017   0.008
  -0.265   0.001   0.010   0.027   0.014
  -0.259   0.001   0.016   0.042   0.021
  -0.252   0.001   0.018   0.047   0.024
  -0.245   0.002   0.013   0.034   0.017
  -0.238   0.002   0.008   0.021   0.011
  -0.231   0.002   0.005   0.013   0.007
  -0.224   0.002   0.004   0.009   0.004
  -0.218   0.002   0.003   0.006   0.003
  -0.211   0.002   0.002   0.005   0.002
  -0.204   0.002   0.002   0.004   0.002
  -0.197   0.002   0.002   0.003   0.001
  -0.190   0.002   0.001   0.003   0.001
  -0.184   0.002   0.001   0.002   0.001
  -0.177   0.002   0.001   0.002   0.001
  -0.170   0.002   0.001   0.002   0.001
  -0.163   0.002   0.001   0.001   0.001
  -0.156   0.002   0.001   0.001   0.001
  -0.150   0.002   0.001   0.001   0.000
  -0.143   0.002   0.001   0.001   0.000
  -0.136   0.002   0.001   0.001   0.000
  -0.129   0.002   0.001   0.001   0.000
  -0.122   0.002   0.001   0.001   0.000
  -0.116   0.002   0.001   0.001   0.000
  -0.109   0.002   0.001   0.001   0.000
  -0.102   0.002   0.001   0.001   0.000
  -0.095   0.002   0.001   0.001   0.000
  -0.088   0.002   0.001   0.001   0.000
  -0.082   0.002   0.001   0.001   0.000
  -0.075   0.002   0.001   0.001   0.000
  -0.068   0.002   0.001   0.001   0.000
  -0.061   0.002   0.001   0.001   0.000
  -0.054   0.002   0.001   0.001   0.000
  -0.048   0.003   0.001   0.001   0.000
  -0.041   0.003   0.001   0.001   0.000
  -0.034   0.003   0.001   0.001   0.000
  -0.027   0.003   0.001   0.001   0.000
  -0.020   0.003   0.001   0.001   0.000
  -0.014   0.003   0.001   0.001   0.000
  -0.007   0.003   0.001   0.001   0.000
   0.000   0.003   0.001   0.001   0.000
   0.007   0.003   0.001   0.001   0.000
   0.014   0.003   0.001   0.001   0.000
   0.020   0.003   0.001   0.001   0.000
   0.027   0.003   0.001   0.001   0.000
   0.034   0.003   0.001   0.001   0.000
   0.041   0.004   0.001   0.001   0.000
   0.048   0.004   0.001   0.001   0.000
   0.054   0.004   0.001   0.001   0.000
   0.061   0.004   0.001   0.001   0.000
   0.068   0.004   0.001   0.001   0.000
   0.075   0.004   0.001   0.001   0.000
   0.082   0.004   0.001   0.001   0.000
   0.088   0.005   0.001   0.001   0.000
   0.095   0.005   0.001   0.001   0.000
   0.102   0.005   0.001   0.001   0.000
   0.109   0.005   0.001   0.001   0.000
   0.116   0.005   0.001   0.001   0.000
   0.122   0.006   0.001   0.001   0.000
   0.129   0.006   0.001   0.001   0.000
   0.136   0.006   0.001   0.001   0.000
   0.143   0.007   0.001   0.001   0.000
   0.150   0.007   0.001   0.001   0.000
   0.156   0.007   0.001   0.001   0.000
   0.163   0.008   0.001   0.001   0.000
   0.170   0.008   0.001   0.001   0.000
   0.177   0.009   0.001   0.001   0.000
   0.184   0.009   0.001   0.001   0.000
   0.190   0.010   0.001   0.001   0.000
   0.197   0.010   0.001   0.001   0.000
   0.204   0.011   0.001   0.001   0.000
   0.211   0.012   0.001   0.001   0.000
   0.218   0.013   0.001   0.002   0.000
   0.224   0.014   0.001   0.002   0.000
   0.231   0.016   0.001   0.002   0.000
   0.238   0.017   0.002   0.002   0.000
   0.245   0.019   0.002   0.002   0.000
   0.252   0.021   0.002   0.002   0.000
   0.259   0.024   0.002   0.003   0.000
   0.265   0.027   0.002   0.003   0.000
   0.272   0.031   0.002   0.003   0.000
   0.279   0.035   0.002   0.004   0.000
   0.286   0.041   0.003   0.004   0.000
   0.293   0.049   0.003   0.005   0.000
   0.299   0.059   0.004   0.006   0.000
   0.306   0.072   0.004   0.007   0.001
   0.313   0.091   0.005   0.009   0.001
   0.320   0.118   0.007   0.012   0.001
   0.327   0.159   0.009   0.016   0.001
   0.333   0.224   0.012   0.022   0.002
   0.340   0.334   0.017   0.033   0.002
   0.347   0.529   0.027   0.052   0.003
   0.354   0.865   0.044   0.086   0.006
   0.361   1.262   0.064   0.125   0.008
   0.367   1.246   0.063   0.123   0.008
   0.374   0.842   0.043   0.083   0.005
   0.381   0.514   0.027   0.051   0.003
   0.388   0.326   0.017   0.032   0.002
   0.395   0.220   0.012   0.022   0.001
   0.401   0.157   0.009   0.016   0.001
   0.408   0.117   0.007   0.012   0.001
   0.415   0.091   0.005   0.009   0.001
   0.422   0.072   0.004   0.007   0.001
   0.429   0.059   0.004   0.006   0.000
   0.435   0.049   0.003   0.005   0.000
   0.442   0.042   0.003   0.004   0.000
   0.449   0.036   0.003   0.004   0.000
   0.456   0.032   0.002   0.003   0.000
   0.463   0.028   0.002   0.003   0.000
   0.469   0.025   0.002   0.003   0.000
   0.476   0.023   0.002   0.003   0.000
   0.483   0.021   0.002   0.002   0.000
   0.490   0.019   0.002   0.002   0.000
   0.497   0.018   0.002   0.002   0.000
   0.503   0.017   0.002   0.002   0.000
   0.510   0.016   0.002   0.002   0.000
   0.517   0.015   0.002   0.002   0.000
   0.524   0.014   0.002   0.002   0.000
   0.531   0.013   0.002   0.002   0.000
   0.537   0.013   0.002   0.002   0.000
   0.544   0.012   0.002   0.002   0.000
   0.551   0.012   0.002   0.002   0.000
   0.558   0.012   0.002   0.002   0.000
   0.565   0.012   0.002   0.002   0.000
   0.571   0.011   0.002   0.002   0.000
   0.578   0.011   0.002   0.002   0.000
   0.585   0.011   0.002   0.002   0.000
   0.592   0.011   0.002   0.002   0.000
   0.599   0.011   0.002   0.002   0.000
   0.605   0.011   0.002   0.002   0.000
   0.612   0.012   0.002   0.002   0.000
   0.619   0.012   0.002   0.002   0.000
   0.626   0.012   0.002   0.002   0.000
   0.633   0.012   0.002   0.002   0.000
   0.639   0.013   0.002   0.002   0.000
   0.646   0.013   0.002   0.002   0.000
   0.653   0.014   0.002   0.002   0.000
   0.660   0.014   0.002   0.002   0.000
   0.667   0.015   0.002   0.003   0.000
   0.673   0.016   0.002   0.003   0.000
   0.680   0.017   0.002   0.003   0.000
   0.687   0.018   0.003   0.003   0.000
   0.694   0.020   0.003   0.004   0.000
   0.701   0.022   0.003   0.004   0.000
   0.707   0.024   0.003   0.004   0.000
   0.714   0.027   0.003   0.005   0.000
   0.721   0.030   0.004   0.005   0.000
   0.728   0.034   0.004   0.006   0.000
   0.735   0.039   0.005   0.007   0.000
   0.741   0.046   0.005   0.009   0.000
   0.748   0.056   0.006   0.011   0.000
   0.755   0.068   0.007   0.013   0.000
   0.762   0.087   0.009   0.017   0.000
   0.769   0.114   0.012   0.022   0.000
   0.776   0.157   0.015   0.031   0.000
   0.782   0.229   0.022   0.045   0.000
   0.789   0.355   0.033   0.070   0.000
   0.796   0.577   0.053   0.114   0.000
   0.803   0.882   0.081   0.175   0.001
   0.810   0.966   0.089   0.192   0.001
   0.816   0.696   0.064   0.138   0.001
   0.823   0.430   0.040   0.085   0.000
   0.830   0.271   0.026   0.053   0.000
   0.837   0.182   0.018   0.036   0.000
   0.844   0.131   0.013   0.025   0.000
   0.850   0.098   0.011   0.019   0.000
   0.857   0.077   0.009   0.015   0.000
   0.864   0.063   0.007   0.012   0.000
   0.871   0.053   0.007   0.010   0.000
   0.878   0.045   0.006   0.008   0.000
   0.884   0.040   0.006   0.007   0.000