  -4.082   0.004   0.003   0.001   0.000
  -4.075   0.004   0.003   0.001   0.000
  -4.068   0.004   0.003   0.001   0.000
  -4.061   0.004   0.003   0.001   0.000
  -4.054   0.003   0.003   0.001   0.000
  -4.048   0.003   0.003   0.001   0.000
  -4.041   0.003   0.003   0.001   0.000
  -4.034   0.003   0.003   0.001   0.000
  -4.027   0.003   0.003   0.001   0.000
  -4.020   0.003   0.003   0.001   0.000
  -4.014   0.003   0.003   0.001   0.000
  -4.007   0.003   0.003   0.001   0.000
  -4.000   0.003   0.003   0.001   0.000
  -3.993   0.003   0.003   0.001   0.000
  -3.986   0.003   0.003   0.001   0.000
  -3.980   0.003   0.003   0.001   0.000
  -3.973   0.002   0.003   0.001   0.000
  -3.966   0.002   0.003   0.001   0.000
  -3.959   0.002   0.003   0.001   0.000
  -3.952   0.002   0.003   0.001   0.000
  -3.946   0.002   0.003   0.001   0.000
  -3.939   0.002   0.003   0.001   0.000
  -3.932   0.002   0.004   0.001   0.000
  -3.925   0.002   0.004   0.001   0.000
  -3.918   0.002   0.004   0.001   0.000
  -3.912   0.002   0.004   0.001   0.000
  -3.905   0.002   0.004   0.001   0.000
  -3.898   0.002   0.004   0.001   0.000
  -3.891   0.002   0.005   0.001   0.000
  -3.884   0.002   0.005   0.001   0.000
  -3.878   0.002   0.005   0.001   0.000
  -3.871   0.002   0.006   0.001   0.000
  -3.864   0.002   0.006   0.001   0.000
  -3.857   0.002   0.006   0.001   0.000
  -3.850   0.002   0.007   0.001   0.000
  -3.844   0.002   0.008   0.001   0.000
  -3.837   0.002   0.008   0.001   0.000
  -3.830   0.002   0.009   0.001   0.000
  -3.823   0.002   0.011   0.001   0.001
  -3.816   0.002   0.012   0.001   0.001
  -3.809   0.001   0.014   0.001   0.001
  -3.803   0.001   0.016   0.001   0.001
  -3.796   0.001   0.019   0.001   0.001
  -3.789   0.001   0.023   0.001   0.001
  -3.782   0.001   0.029   0.001   0.001
  -3.775   0.001   0.036   0.001   0.002
  -3.769   0.001   0.048   0.001   0.002
  -3.762   0.001   0.066   0.002   0.003
  -3.755   0.001   0.095   0.002   0.004
  -3.748   0.001   0.145   0.003   0.006
  -3.741   0.001   0.235   0.004   0.010
  -3.735   0.001   0.375   0.007   0.016
  -3.728   0.001   0.468   0.009   0.020
  -3.721   0.001   0.374   0.007   0.016
  -3.714   0.001   0.234   0.004   0.010
  -3.707   0.001   0.145   0.003   0.006
  -3.701   0.001   0.095   0.002   0.004
  -3.694   0.001   0.066   0.002   0.003
  -3.687   0.001   0.048   0.001   0.002
  -3.680   0.001   0.036   0.001   0.002
  -3.673   0.001   0.029   0.001   0.001
  -3.667   0.001   0.023   0.001   0.001
  -3.660   0.001   0.019   0.001   0.001
  -3.653   0.001   0.016   0.001   0.001
  -3.646   0.001   0.014   0.001   0.001
  -3.639   0.001   0.012   0.001   0.001
  -3.633   0.001   0.011   0.001   0.001
  -3.626   0.001   0.009   0.001   0.000
  -3.619   0.001   0.009   0.001   0.000
  -3.612   0.001   0.008   0.001   0.000
  -3.605   0.001   0.007   0.001   0.000
  -3.599   0.001   0.006   0.001   0.000
  -3.592   0.001   0.006   0.001   0.000
  -3.585   0.001   0.006   0.001   0.000
  -3.578   0.001   0.005   0.001   0.000
  -3.571   0.001   0.005   0.001   0.000
  -3.565   0.001   0.005   0.001   0.000
  -3.558   0.001   0.004   0.000   0.000
  -3.551   0.001   0.004   0.000   0.000
  -3.544   0.001   0.004   0.000   0.000
  -3.537   0.001   0.004   0.000   0.000
  -3.531   0.001   0.004   0.000   0.000
  -3.524   0.001   0.004   0.001   0.000
  -3.517   0.001   0.004   0.001   0.000
  -3.510   0.001   0.003   0.001   0.000
  -3.503   0.001   0.003   0.001   0.000
  -3.497   0.001   0.003   0.001   0.000
  -3.490   0.001   0.003   0.001   0.000
  -3.483   0.001   0.003   0.001   0.000
  -3.476   0.001   0.003   0.001   0.000
  -3.469   0.001   0.003   0.001   0.000
  -3.463   0.001   0.003   0.001   0.000
  -3.456   0.001   0.003   0.001   0.000
  -3.449   0.001   0.003   0.001   0.000
  -3.442   0.001   0.003   0.001   0.000
  -3.435   0.001   0.003   0.001   0.000
  -3.429   0.001   0.003   0.001   0.000
  -3.422   0.001   0.003   0.001   0.000
  -3.415   0.001   0.003   0.001   0.000
  -3.408   0.001   0.003   0.001   0.000
  -3.401   0.001   0.003   0.001   0.000
  -3.395   0.001   0.003   0.001   0.000
  -3.388   0.001   0.003   0.001   0.000
  -3.381   0.001   0.003   0.001   0.000
  -3.374   0.001   0.003   0.001   0.000
  -3.367   0.001   0.003   0.001   0.000
  -3.361   0.001   0.003   0.001   0.000
  -3.354   0.001   0.003   0.001   0.000
  -3.347   0.001   0.003   0.001   0.000
  -3.340   0.001   0.003   0.001   0.000
  -3.333   0.001   0.003   0.001   0.000
  -3.327   0.001   0.004   0.001   0.000
  -3.320   0.001   0.004   0.001   0.000
  -3.313   0.001   0.004   0.001   0.000
  -3.306   0.001   0.004   0.001   0.000
  -3.299   0.001   0.004   0.001   0.000
  -3.292   0.001   0.004   0.001   0.000
  -3.286   0.001   0.004   0.001   0.000
  -3.279   0.001   0.004   0.001   0.000
  -3.272   0.001   0.004   0.001   0.000
  -3.265   0.001   0.005   0.001   0.000
  -3.258   0.001   0.005   0.001   0.000
  -3.252   0.001   0.005   0.001   0.000
  -3.245   0.001   0.005   0.001   0.000
  -3.238   0.001   0.005   0.001   0.000
  -3.231   0.001   0.006   0.001   0.000
  -3.224   0.001   0.006   0.001   0.000
  -3.218   0.001   0.006   0.001   0.000
  -3.211   0.001   0.007   0.001   0.000
  -3.204   0.001   0.007   0.002   0.000
  -3.197   0.001   0.007   0.002   0.000
  -3.190   0.001   0.008   0.002   0.000
  -3.184   0.001   0.008   0.002   0.000
  -3.177   0.001   0.009   0.002   0.000
  -3.170   0.001   0.010   0.002   0.000
  -3.163   0.001   0.010   0.002   0.001
  -3.156   0.001   0.011   0.002   0.001
  -3.150   0.001   0.012   0.003   0.001
  -3.143   0.001   0.013   0.003   0.001
  -3.136   0.001   0.014   0.003   0.001
  -3.129   0.001   0.016   0.003   0.001
  -3.122   0.001   0.017   0.004   0.001
  -3.116   0.001   0.019   0.004   0.001
  -3.109   0.001   0.021   0.005   0.001
  -3.102   0.001   0.024   0.005   0.001
  -3.095   0.001   0.027   0.006   0.001
  -3.088   0.001   0.031   0.007   0.001
  -3.082   0.000   0.036   0.008   0.002
  -3.075   0.000   0.042   0.009   0.002
  -3.068   0.000   0.051   0.011   0.002
  -3.061   0.000   0.061   0.013   0.003
  -3.054   0.000   0.076   0.016   0.003
  -3.048   0.000   0.096   0.020   0.004
  -3.041   0.000   0.126   0.027   0.006
  -3.034   0.000   0.171   0.036   0.008
  -3.027   0.000   0.244   0.052   0.011
  -3.020   0.000   0.369   0.078   0.017
  -3.014   0.000   0.591   0.125   0.027
  -3.007   0.000   0.963   0.203   0.044
  -3.000   0.000   1.330   0.280   0.061
  -2.993   0.000   1.200   0.253   0.055
  -2.986   0.000   0.779   0.164   0.036
  -2.980   0.000   0.476   0.100   0.022
  -2.973   0.000   0.305   0.064   0.014
  -2.966   0.000   0.208   0.044   0.009
  -2.959   0.000   0.149   0.031   0.007
  -2.952   0.000   0.112   0.024   0.005
  -2.946   0.000   0.087   0.018   0.004
  -2.939   0.000   0.069   0.015   0.003
  -2.932   0.000   0.057   0.012   0.003
  -2.925   0.000   0.047   0.010   0.002
  -2.918   0.000   0.040   0.009   0.002
  -2.912   0.000   0.035   0.007   0.002
  -2.905   0.000   0.030   0.006   0.001
  -2.898   0.000   0.027   0.006   0.001
  -2.891   0.000   0.024   0.005   0.001
  -2.884   0.000   0.022   0.005   0.001
  -2.878   0.000   0.020   0.004   0.001
  -2.871   0.000   0.018   0.004   0.001
  -2.864   0.000   0.017   0.004   0.001
  -2.857   0.000   0.015   0.003   0.001
  -2.850   0.000   0.015   0.003   0.001
  -2.844   0.000   0.014   0.003   0.001
  -2.837   0.000   0.013   0.003   0.001
  -2.830   0.000   0.012   0.003   0.001
  -2.823   0.000   0.012   0.003   0.001
  -2.816   0.000   0.012   0.003   0.001
  -2.810   0.000   0.011   0.002   0.001
  -2.803   0.000   0.011   0.002   0.001
  -2.796   0.000   0.011   0.002   0.001
  -2.789   0.000   0.011   0.002   0.001
  -2.782   0.000   0.011   0.002   0.001
  -2.775   0.000   0.012   0.002   0.001
  -2.769   0.000   0.012   0.002   0.001
  -2.762   0.000   0.012   0.003   0.001
  -2.755   0.000   0.013   0.003   0.001
  -2.748   0.000   0.014   0.003   0.001
  -2.741   0.000   0.015   0.003   0.001
  -2.735   0.000   0.016   0.003   0.001
  -2.728   0.000   0.017   0.003   0.001
  -2.721   0.000   0.019   0.004   0.001
  -2.714   0.000   0.022   0.004   0.001
  -2.707   0.000   0.025   0.005   0.002
  -2.701   0.000   0.029   0.005   0.002
  -2.694   0.000   0.035   0.006   0.002
  -2.687   0.000   0.043   0.008   0.003
  -2.680   0.000   0.054   0.010   0.003
  -2.673   0.000   0.070   0.013   0.004
  -2.667   0.000   0.095   0.017   0.006
  -2.660   0.000   0.136   0.024   0.009
  -2.653   0.000   0.208   0.037   0.013
  -2.646   0.000   0.335   0.059   0.021
  -2.639   0.000   0.537   0.094   0.034
  -2.633   0.000   0.684   0.120   0.043
  -2.626   0.000   0.558   0.098   0.035
  -2.619   0.000   0.351   0.062   0.022
  -2.612   0.000   0.217   0.038   0.014
  -2.605   0.000   0.141   0.025   0.009
  -2.599   0.000   0.098   0.017   0.006
  -2.592   0.000   0.071   0.013   0.005
  -2.585   0.000   0.054   0.010   0.003
  -2.578   0.000   0.043   0.008   0.003
  -2.571   0.000   0.034   0.006   0.002
  -2.565   0.000   0.028   0.005   0.002
  -2.558   0.000   0.024   0.005   0.002
  -2.551   0.000   0.020   0.004   0.001
  -2.544   0.000   0.018   0.003   0.001
  -2.537   0.000   0.015   0.003   0.001
  -2.531   0.000   0.014   0.003   0.001
  -2.524   0.000   0.012   0.003   0.001
  -2.517   0.000   0.011   0.002   0.001
  -2.510   0.000   0.010   0.002   0.001
  -2.503   0.000   0.009   0.002   0.001
  -2.497   0.000   0.008   0.002   0.001
  -2.490   0.000   0.008   0.002   0.001
  -2.483   0.000   0.007   0.002   0.000
  -2.476   0.000   0.007   0.002   0.000
  -2.469   0.000   0.006   0.002   0.000
  -2.463   0.000   0.006   0.002   0.000
  -2.456   0.000   0.006   0.001   0.000
  -2.449   0.000   0.005   0.001   0.000
  -2.442   0.000   0.005   0.001   0.000
  -2.435   0.000   0.005   0.001   0.000
  -2.429   0.000   0.004   0.001   0.000
  -2.422   0.000   0.004   0.001   0.000
  -2.415   0.000   0.004   0.001   0.000
  -2.408   0.000   0.004   0.001   0.000
  -2.401   0.000   0.004   0.001   0.000
  -2.395   0.000   0.004   0.001   0.000
  -2.388   0.000   0.004   0.001   0.000
  -2.381   0.000   0.003   0.001   0.000
  -2.374   0.000   0.003   0.001   0.000
  -2.367   0.000   0.003   0.001   0.000
  -2.361   0.000   0.003   0.001   0.000
  -2.354   0.000   0.003   0.001   0.000
  -2.347   0.000   0.003   0.001   0.000
  -2.340   0.000   0.003   0.001   0.000
  -2.333   0.000   0.003   0.001   0.000
  -2.327   0.000   0.003   0.001   0.000
  -2.320   0.000   0.003   0.001   0.000
  -2.313   0.000   0.003   0.001   0.000
  -2.306   0.000   0.003   0.001   0.000
  -2.299   0.000   0.003   0.001   0.000
  -2.293   0.000   0.003   0.002   0.000
  -2.286   0.000   0.003   0.002   0.000
  -2.279   0.000   0.003   0.002   0.000
  -2.272   0.000   0.003   0.002   0.000
  -2.265   0.000   0.003   0.002   0.000
  -2.258   0.000   0.003   0.002   0.000
  -2.252   0.000   0.003   0.002   0.000
  -2.245   0.000   0.003   0.002   0.000
  -2.238   0.000   0.003   0.002   0.000
  -2.231   0.000   0.003   0.002   0.000
  -2.224   0.000   0.003   0.002   0.000
  -2.218   0.000   0.003   0.002   0.000
  -2.211   0.000   0.003   0.002   0.000
  -2.204   0.000   0.003   0.003   0.000
  -2.197   0.000   0.003   0.003   0.000
  -2.190   0.000   0.003   0.003   0.000
  -2.184   0.000   0.004   0.003   0.000
  -2.177   0.000   0.004   0.003   0.000
  -2.170   0.000   0.004   0.004   0.000
  -2.163   0.000   0.004   0.004   0.000
  -2.156   0.000   0.004   0.004   0.000
  -2.150   0.000   0.005   0.004   0.000
  -2.143   0.000   0.005   0.005   0.001
  -2.136   0.000   0.006   0.005   0.001
  -2.129   0.000   0.006   0.006   0.001
  -2.122   0.000   0.007   0.007   0.001
  -2.116   0.000   0.008   0.008   0.001
  -2.109   0.000   0.009   0.009   0.001
  -2.102   0.000   0.010   0.010   0.001
  -2.095   0.000   0.011   0.012   0.001
  -2.088   0.000   0.013   0.014   0.001
  -2.082   0.000   0.016   0.017   0.002
  -2.075   0.000   0.020   0.021   0.002
  -2.068   0.000   0.025   0.027   0.003
  -2.061   0.000   0.034   0.036   0.003
  -2.054   0.001   0.047   0.049   0.005
  -2.048   0.001   0.068   0.072   0.007
  -2.041   0.001   0.106   0.112   0.011
  -2.034   0.001   0.173   0.182   0.018
  -2.027   0.001   0.261   0.274   0.027
  -2.020   0.001   0.276   0.291   0.028
  -2.014   0.001   0.195   0.206   0.020
  -2.007   0.001   0.120   0.128   0.012
  -2.000   0.001   0.077   0.082   0.008
  -1.993   0.001   0.052   0.057   0.005
  -1.986   0.000   0.038   0.042   0.004
  -1.980   0.000   0.029   0.034   0.003
  -1.973   0.000   0.024   0.029   0.003
  -1.966   0.000   0.021   0.026   0.002
  -1.959   0.000   0.019   0.025   0.002
  -1.952   0.000   0.018   0.026   0.002
  -1.946   0.000   0.018   0.029   0.002
  -1.939   0.000   0.020   0.034   0.002
  -1.932   0.000   0.023   0.043   0.003
  -1.925   0.000   0.030   0.059   0.003
  -1.918   0.000   0.043   0.088   0.005
  -1.912   0.000   0.066   0.140   0.008
  -1.905   0.000   0.100   0.215   0.011
  -1.898   0.000   0.112   0.242   0.013
  -1.891   0.000   0.083   0.178   0.009
  -1.884   0.000   0.052   0.110   0.006
  -1.878   0.000   0.033   0.070   0.004
  -1.871   0.000   0.023   0.047   0.003
  -1.864   0.000   0.017   0.033   0.002
  -1.857   0.000   0.013   0.025   0.001
  -1.850   0.000   0.010   0.019   0.001
  -1.844   0.000   0.009   0.016   0.001
  -1.837   0.000   0.007   0.013   0.001
  -1.830   0.000   0.006   0.011   0.001
  -1.823   0.000   0.006   0.009   0.001
  -1.816   0.000   0.005   0.008   0.001
  -1.810   0.000   0.004   0.007   0.001
  -1.803   0.000   0.004   0.006   0.000
  -1.796   0.000   0.004   0.006   0.000
  -1.789   0.000   0.003   0.005   0.000
  -1.782   0.000   0.003   0.005   0.000
  -1.775   0.000   0.003   0.004   0.000
  -1.769   0.000   0.003   0.004   0.000
  -1.762   0.000   0.003   0.004   0.000
  -1.755   0.000   0.003   0.004   0.000
  -1.748   0.000   0.002   0.003   0.000
  -1.741   0.000   0.002   0.003   0.000
  -1.735   0.000   0.002   0.003   0.000
  -1.728   0.000   0.002   0.003   0.000
  -1.721   0.000   0.002   0.003   0.000
  -1.714   0.000   0.002   0.003   0.000
  -1.707   0.000   0.002   0.003   0.000
  -1.701   0.000   0.002   0.003   0.000
  -1.694   0.000   0.002   0.003   0.000
  -1.687   0.000   0.002   0.003   0.000
  -1.680   0.000   0.002   0.002   0.000
  -1.673   0.000   0.002   0.002   0.000
  -1.667   0.000   0.002   0.002   0.000
  -1.660   0.000   0.002   0.002   0.000
  -1.653   0.000   0.002   0.002   0.000
  -1.646   0.000   0.002   0.002   0.000
  -1.639   0.000   0.002   0.002   0.000
  -1.633   0.000   0.002   0.003   0.000
  -1.626   0.000   0.002   0.003   0.000
  -1.619   0.000   0.002   0.003   0.000
  -1.612   0.000   0.002   0.003   0.000
  -1.605   0.000   0.002   0.003   0.000
  -1.599   0.000   0.002   0.003   0.000
  -1.592   0.000   0.002   0.003   0.000
  -1.585   0.000   0.002   0.003   0.000
  -1.578   0.000   0.002   0.003   0.001
  -1.571   0.000   0.002   0.003   0.001
  -1.565   0.000   0.003   0.004   0.001
  -1.558   0.000   0.003   0.004   0.001
  -1.551   0.000   0.003   0.004   0.001
  -1.544   0.000   0.003   0.004   0.001
  -1.537   0.000   0.003   0.005   0.001
  -1.531   0.000   0.004   0.005   0.001
  -1.524   0.000   0.004   0.006   0.001
  -1.517   0.000   0.004   0.006   0.001
  -1.510   0.000   0.005   0.007   0.001
  -1.503   0.000   0.005   0.008   0.001
  -1.497   0.000   0.006   0.009   0.002
  -1.490   0.000   0.007   0.010   0.002
  -1.483   0.000   0.008   0.012   0.002
  -1.476   0.000   0.009   0.014   0.002
  -1.469   0.000   0.011   0.017   0.003
  -1.463   0.000   0.013   0.021   0.004
  -1.456   0.000   0.017   0.027   0.005
  -1.449   0.000   0.021   0.035   0.006
  -1.442   0.000   0.029   0.047   0.008
  -1.435   0.000   0.041   0.067   0.011
  -1.429   0.000   0.061   0.101   0.017
  -1.422   0.000   0.096   0.160   0.027
  -1.415   0.000   0.158   0.262   0.045
  -1.408   0.000   0.225   0.374   0.064
  -1.401   0.000   0.213   0.355   0.061
  -1.395   0.000   0.142   0.236   0.040
  -1.388   0.000   0.087   0.144   0.025
  -1.381   0.000   0.055   0.091   0.016
  -1.374   0.000   0.037   0.062   0.011
  -1.367   0.000   0.027   0.044   0.008
  -1.361   0.000   0.020   0.033   0.006
  -1.354   0.000   0.016   0.025   0.004
  -1.347   0.000   0.012   0.020   0.003
  -1.340   0.000   0.010   0.017   0.003
  -1.333   0.000   0.009   0.014   0.002
  -1.327   0.000   0.007   0.012   0.002
  -1.320   0.000   0.006   0.010   0.002
  -1.313   0.000   0.005   0.009   0.001
  -1.306   0.000   0.005   0.008   0.001
  -1.299   0.000   0.004   0.007   0.001
  -1.293   0.000   0.004   0.006   0.001
  -1.286   0.000   0.004   0.005   0.001
  -1.279   0.000   0.003   0.005   0.001
  -1.272   0.000   0.003   0.004   0.001
  -1.265   0.000   0.003   0.004   0.001
  -1.258   0.000   0.002   0.004   0.001
  -1.252   0.000   0.002   0.003   0.001
  -1.245   0.000   0.002   0.003   0.001
  -1.238   0.000   0.002   0.003   0.001
  -1.231   0.000   0.002   0.003   0.000
  -1.224   0.000   0.002   0.003   0.000
  -1.218   0.000   0.002   0.002   0.000
  -1.211   0.000   0.002   0.002   0.000
  -1.204   0.000   0.002   0.002   0.000
  -1.197   0.000   0.001   0.002   0.000
  -1.190   0.000   0.001   0.002   0.000
  -1.184   0.000   0.001   0.002   0.000
  -1.177   0.000   0.001   0.002   0.000
  -1.170   0.000   0.001   0.002   0.000
  -1.163   0.000   0.001   0.002   0.000
  -1.156   0.000   0.001   0.001   0.000
  -1.150   0.000   0.001   0.001   0.000
  -1.143   0.000   0.001   0.001   0.000
  -1.136   0.000   0.001   0.001   0.000
  -1.129   0.000   0.001   0.001   0.000
  -1.122   0.000   0.001   0.001   0.000
  -1.116   0.000   0.001   0.001   0.000
  -1.109   0.000   0.001   0.001   0.000
  -1.102   0.000   0.001   0.001   0.000
  -1.095   0.000   0.001   0.001   0.000
  -1.088   0.000   0.001   0.001   0.000
  -1.082   0.000   0.001   0.001   0.000
  -1.075   0.000   0.001   0.001   0.000
  -1.068   0.000   0.001   0.001   0.000
  -1.061   0.000   0.001   0.001   0.000
  -1.054   0.000   0.001   0.001   0.000
  -1.048   0.000   0.001   0.001   0.000
  -1.041   0.000   0.001   0.001   0.000
  -1.034   0.000   0.001   0.001   0.000
  -1.027   0.000   0.001   0.001   0.000
  -1.020   0.000   0.001   0.001   0.000
  -1.014   0.000   0.001   0.001   0.000
  -1.007   0.000   0.001   0.001   0.000
  -1.000   0.000   0.001   0.001   0.000
  -0.993   0.000   0.001   0.001   0.000
  -0.986   0.000   0.001   0.001   0.000
  -0.980   0.000   0.001   0.001   0.000
  -0.973   0.000   0.001   0.001   0.000
  -0.966   0.000   0.001   0.001   0.000
  -0.959   0.000   0.001   0.001   0.000
  -0.952   0.000   0.001   0.001   0.000
  -0.946   0.000   0.001   0.001   0.000
  -0.939   0.000   0.001   0.001   0.000
  -0.932   0.000   0.001   0.001   0.000
  -0.925   0.000   0.001   0.001   0.000
  -0.918   0.000   0.001   0.001   0.000
  -0.912   0.000   0.001   0.001   0.000
  -0.905   0.000   0.001   0.001   0.000
  -0.898   0.000   0.001   0.001   0.000
  -0.891   0.000   0.001   0.001   0.000
  -0.884   0.000   0.001   0.001   0.000
  -0.878   0.000   0.001   0.001   0.000
  -0.871   0.001   0.001   0.001   0.000
  -0.864   0.001   0.001   0.001   0.000
  -0.857   0.001   0.001   0.001   0.000
  -0.850   0.001   0.001   0.001   0.000
  -0.844   0.001   0.001   0.001   0.000
  -0.837   0.001   0.001   0.001   0.000
  -0.830   0.001   0.001   0.001   0.000
  -0.823   0.001   0.001   0.001   0.000
  -0.816   0.001   0.001   0.001   0.000
  -0.810   0.001   0.001   0.001   0.000
  -0.803   0.001   0.001   0.001   0.000
  -0.796   0.001   0.001   0.001   0.000
  -0.789   0.001   0.001   0.001   0.000
  -0.782   0.001   0.001   0.001   0.000
  -0.776   0.001   0.001   0.001   0.000
  -0.769   0.001   0.001   0.001   0.000
  -0.762   0.001   0.001   0.001   0.000
  -0.755   0.001   0.001   0.001   0.000
  -0.748   0.001   0.001   0.001   0.000
  -0.741   0.001   0.001   0.001   0.000
  -0.735   0.001   0.001   0.001   0.000
  -0.728   0.001   0.001   0.001   0.000
  -0.721   0.001   0.001   0.001   0.000
  -0.714   0.001   0.001   0.001   0.001
  -0.707   0.001   0.001   0.001   0.001
  -0.701   0.001   0.001   0.001   0.001
  -0.694   0.001   0.001   0.002   0.001
  -0.687   0.001   0.001   0.002   0.001
  -0.680   0.001   0.001   0.002   0.001
  -0.673   0.001   0.001   0.003   0.001
  -0.667   0.001   0.002   0.003   0.001
  -0.660   0.001   0.002   0.004   0.002
  -0.653   0.001   0.002   0.005   0.002
  -0.646   0.001   0.003   0.007   0.003
  -0.639   0.001   0.004   0.010   0.005
  -0.633   0.001   0.006   0.015   0.007
  -0.626   0.001   0.010   0.023   0.012
  -0.619   0.001   0.015   0.038   0.019
  -0.612   0.001   0.020   0.050   0.025
  -0.605   0.001   0.017   0.043   0.022
  -0.599   0.001   0.011   0.027   0.014
  -0.592   0.001   0.007   0.017   0.008
  -0.585   0.001   0.005   0.011   0.005
  -0.578   0.001   0.003   0.008   0.004
  -0.571   0.001   0.003   0.006   0.003
  -0.565   0.001   0.002   0.004   0.002
  -0.558   0.001   0.002   0.003   0.002
  -0.551   0.001   0.001   0.003   0.001
  -0.544   0.001   0.001   0.002   0.001
  -0.537   0.001   0.001   0.002   0.001
  -0.531   0.001   0.001   0.002   0.001
  -0.524   0.001   0.001   0.001   0.001
  -0.517   0.001   0.001   0.001   0.001
  -0.510   0.001   0.001   0.001   0.001
  -0.503   0.001   0.001   0.001   0.000
  -0.497   0.001   0.001   0.001   0.000
  -0.490   0.001   0.001   0.001   0.000
  -0.483   0.001   0.001   0.001   0.000
  -0.476   0.001   0.001   0.001   0.000
  -0.469   0.001   0.001   0.001   0.000
  -0.463   0.001   0.001   0.001   0.000
  -0.456   0.001   0.001   0.001   0.000
  -0.449   0.001   0.001   0.001   0.000
  -0.442   0.001   0.001   0.001   0.000
  -0.435   0.001   0.001   0.001   0.000
  -0.429   0.001   0.001   0.001   0.000
  -0.422   0.001   0.001   0.001   0.000
  -0.415   0.001   0.001   0.001   0.000
  -0.408   0.001   0.001   0.000   0.000
  -0.401   0.001   0.001   0.000   0.000
  -0.395   0.001   0.000   0.000   0.000
  -0.388   0.001   0.000   0.000   0.000
  -0.381   0.001   0.000   0.000   0.000
  -0.374   0.001   0.000   0.000   0.000
  -0.367   0.001   0.000   0.000   0.000
  -0.361   0.001   0.000   0.000   0.000
  -0.354   0.001   0.000   0.000   0.000
  -0.347   0.001   0.000   0.000   0.000
  -0.340   0.001   0.000   0.000   0.000
  -0.333   0.001   0.000   0.000   0.000
  -0.327   0.001   0.000   0.000   0.000
  -0.320   0.001   0.000   0.000   0.000
  -0.313   0.001   0.000   0.000   0.000
  -0.306   0.001   0.000   0.000   0.000
  -0.299   0.001   0.000   0.000   0.000
  -0.293   0.001   0.000   0.000   0.000
  -0.286   0.001   0.000   0.000   0.000
  -0.279   0.001   0.000   0.000   0.000
  -0.272   0.001   0.000   0.000   0.000
  -0.265   0.001   0.000   0.000   0.000
  -0.259   0.001   0.000   0.000   0.000
  -0.252   0.001   0.000   0.000   0.000
  -0.245   0.001   0.000   0.000   0.000
  -0.238   0.001   0.000   0.000   0.000
  -0.231   0.001   0.000   0.000   0.000
  -0.224   0.001   0.000   0.000   0.000
  -0.218   0.001   0.000   0.000   0.000
  -0.211   0.001   0.000   0.000   0.000
  -0.204   0.001   0.000   0.000   0.000
  -0.197   0.001   0.000   0.000   0.000
  -0.190   0.001   0.000   0.000   0.000
  -0.184   0.001   0.000   0.000   0.000
  -0.177   0.001   0.000   0.000   0.000
  -0.170   0.001   0.000   0.000   0.000
  -0.163   0.001   0.000   0.000   0.000
  -0.156   0.001   0.000   0.000   0.000
  -0.150   0.001   0.000   0.000   0.000
  -0.143   0.001   0.000   0.000   0.000
  -0.136   0.001   0.000   0.000   0.000
  -0.129   0.001   0.000   0.000   0.000
  -0.122   0.001   0.000   0.000   0.000
  -0.116   0.001   0.000   0.000   0.000
  -0.109   0.001   0.000   0.000   0.000
  -0.102   0.001   0.000   0.000   0.000
  -0.095   0.001   0.000   0.000   0.000
  -0.088   0.001   0.000   0.000   0.000
  -0.082   0.001   0.000   0.000   0.000
  -0.075   0.001   0.000   0.000   0.000
  -0.068   0.001   0.000   0.000   0.000
  -0.061   0.001   0.000   0.000   0.000
  -0.054   0.001   0.000   0.000   0.000
  -0.048   0.001   0.000   0.000   0.000
  -0.041   0.001   0.000   0.000   0.000
  -0.034   0.001   0.000   0.000   0.000
  -0.027   0.001   0.000   0.000   0.000
  -0.020   0.001   0.000   0.000   0.000
  -0.014   0.001   0.000   0.000   0.000
  -0.007   0.001   0.000   0.000   0.000
   0.000   0.001   0.000   0.000   0.000
   0.007   0.001   0.000   0.000   0.000
   0.014   0.001   0.000   0.000   0.000
   0.020   0.001   0.000   0.000   0.000
   0.027   0.001   0.000   0.000   0.000
   0.034   0.001   0.000   0.000   0.000
   0.041   0.001   0.000   0.000   0.000
   0.048   0.001   0.000   0.000   0.000
   0.054   0.001   0.000   0.000   0.000
   0.061   0.001   0.000   0.000   0.000
   0.068   0.001   0.000   0.000   0.000
   0.075   0.001   0.000   0.000   0.000
   0.082   0.001   0.000   0.000   0.000
   0.088   0.001   0.000   0.000   0.000
   0.095   0.002   0.000   0.000   0.000
   0.102   0.002   0.000   0.000   0.000
   0.109   0.002   0.000   0.000   0.000
   0.116   0.002   0.000   0.000   0.000
   0.122   0.002   0.000   0.000   0.000
   0.129   0.002   0.000   0.000   0.000
   0.136   0.002   0.000   0.000   0.000
   0.143   0.002   0.000   0.000   0.000
   0.150   0.002   0.000   0.000   0.000
   0.156   0.002   0.000   0.000   0.000
   0.163   0.002   0.000   0.000   0.000
   0.170   0.002   0.000   0.000   0.000
   0.177   0.002   0.001   0.000   0.000
   0.184   0.002   0.001   0.000   0.000
   0.190   0.002   0.001   0.000   0.000
   0.197   0.002   0.001   0.000   0.000
   0.204   0.002   0.001   0.000   0.000
   0.211   0.002   0.001   0.000   0.000
   0.218   0.002   0.001   0.000   0.000
   0.224   0.002   0.001   0.000   0.000
   0.231   0.002   0.001   0.000   0.000
   0.238   0.002   0.001   0.000   0.000
   0.245   0.002   0.001   0.000   0.000
   0.252   0.002   0.001   0.000   0.000
   0.259   0.002   0.001   0.000   0.000
   0.265   0.002   0.001   0.000   0.000
   0.272   0.002   0.001   0.000   0.000
   0.279   0.002   0.001   0.000   0.000
   0.286   0.002   0.001   0.000   0.000
   0.293   0.003   0.001   0.000   0.000
   0.299   0.003   0.001   0.000   0.000
   0.306   0.003   0.001   0.000   0.000
   0.313   0.003   0.001   0.000   0.000
   0.320   0.003   0.001   0.000   0.000
   0.327   0.003   0.001   0.000   0.000
   0.333   0.003   0.001   0.000   0.000
   0.340   0.003   0.001   0.000   0.000
   0.347   0.003   0.001   0.000   0.000
   0.354   0.003   0.001   0.000   0.000
   0.361   0.003   0.001   0.000   0.000
   0.367   0.003   0.001   0.000   0.000
   0.374   0.004   0.001   0.000   0.000
   0.381   0.004   0.001   0.001   0.000
   0.388   0.004   0.001   0.001   0.000
   0.395   0.004   0.001   0.001   0.000
   0.401   0.004   0.001   0.001   0.000
   0.408   0.004   0.001   0.001   0.000
   0.415   0.004   0.001   0.001   0.000
   0.422   0.004   0.001   0.001   0.000
   0.429   0.005   0.001   0.001   0.000
   0.435   0.005   0.001   0.001   0.000
   0.442   0.005   0.001   0.001   0.000
   0.449   0.005   0.001   0.001   0.000
   0.456   0.005   0.001   0.001   0.000
   0.463   0.006   0.001   0.001   0.000
   0.469   0.006   0.001   0.001   0.000
   0.476   0.006   0.001   0.001   0.000
   0.483   0.007   0.001   0.001   0.000
   0.490   0.007   0.001   0.001   0.000
   0.497   0.007   0.001   0.001   0.000
   0.503   0.008   0.001   0.001   0.000
   0.510   0.008   0.001   0.001   0.000
   0.517   0.009   0.001   0.001   0.000
   0.524   0.009   0.001   0.001   0.000
   0.531   0.010   0.001   0.001   0.000
   0.537   0.010   0.001   0.001   0.000
   0.544   0.011   0.001   0.001   0.000
   0.551   0.012   0.001   0.001   0.000
   0.558   0.013   0.001   0.001   0.000
   0.565   0.014   0.001   0.002   0.000
   0.571   0.015   0.001   0.002   0.000
   0.578   0.017   0.001   0.002   0.000
   0.585   0.019   0.001   0.002   0.000
   0.592   0.021   0.002   0.002   0.000
   0.599   0.023   0.002   0.002   0.000
   0.605   0.026   0.002   0.003   0.000
   0.612   0.029   0.002   0.003   0.000
   0.619   0.034   0.002   0.003   0.000
   0.626   0.039   0.003   0.004   0.000
   0.633   0.045   0.003   0.005   0.000
   0.639   0.054   0.003   0.005   0.000
   0.646   0.065   0.004   0.007   0.000
   0.653   0.081   0.005   0.008   0.000
   0.660   0.102   0.006   0.010   0.001
   0.667   0.133   0.007   0.013   0.001
   0.673   0.181   0.010   0.018   0.001
   0.680   0.257   0.014   0.025   0.001
   0.687   0.387   0.020   0.038   0.002
   0.694   0.618   0.032   0.061   0.003
   0.701   1.009   0.052   0.099   0.005
   0.707   1.406   0.072   0.137   0.007
   0.714   1.287   0.066   0.126   0.006
   0.721   0.841   0.044   0.082   0.004
   0.728   0.514   0.027   0.050   0.002
   0.735   0.329   0.017   0.032   0.002
   0.741   0.224   0.012   0.022   0.001
   0.748   0.160   0.009   0.016   0.001
   0.755   0.120   0.007   0.012   0.001
   0.762   0.094   0.005   0.009   0.000
   0.769   0.075   0.004   0.008   0.000
   0.776   0.061   0.004   0.006   0.000
   0.782   0.051   0.003   0.005   0.000
   0.789   0.044   0.003   0.004   0.000
   0.796   0.038   0.003   0.004   0.000
   0.803   0.033   0.002   0.003   0.000
   0.810   0.029   0.002   0.003   0.000
   0.816   0.026   0.002   0.003   0.000
   0.823   0.023   0.002   0.003   0.000
   0.830   0.021   0.002   0.002   0.000
   0.837   0.020   0.002   0.002   0.000
   0.844   0.018   0.002   0.002   0.000
   0.850   0.017   0.002   0.002   0.000
   0.857   0.016   0.002   0.002   0.000
   0.864   0.015   0.001   0.002   0.000
   0.871   0.014   0.001   0.002   0.000
   0.878   0.013   0.001   0.002   0.000
   0.884   0.013   0.001   0.002   0.000