  -4.082   0.054   0.583   0.027   0.001
  -4.075   0.057   0.600   0.028   0.001
  -4.068   0.064   0.674   0.032   0.001
  -4.061   0.077   0.830   0.040   0.002
  -4.054   0.101   1.124   0.054   0.003
  -4.048   0.145   1.673   0.080   0.004
  -4.041   0.222   2.631   0.126   0.006
  -4.034   0.308   3.712   0.177   0.009
  -4.027   0.296   3.560   0.170   0.008
  -4.020   0.204   2.404   0.115   0.006
  -4.014   0.131   1.502   0.072   0.004
  -4.007   0.090   0.985   0.048   0.002
  -4.000   0.067   0.692   0.034   0.002
  -3.993   0.053   0.518   0.026   0.001
  -3.986   0.044   0.408   0.020   0.001
  -3.980   0.039   0.335   0.017   0.001
  -3.973   0.035   0.285   0.015   0.001
  -3.966   0.033   0.250   0.013   0.001
  -3.959   0.032   0.225   0.012   0.001
  -3.952   0.031   0.208   0.011   0.001
  -3.946   0.031   0.197   0.011   0.001
  -3.939   0.031   0.189   0.011   0.001
  -3.932   0.032   0.186   0.011   0.001
  -3.925   0.033   0.186   0.011   0.001
  -3.918   0.035   0.190   0.011   0.001
  -3.912   0.037   0.197   0.012   0.001
  -3.905   0.040   0.208   0.012   0.001
  -3.898   0.044   0.224   0.013   0.001
  -3.891   0.048   0.245   0.015   0.001
  -3.884   0.054   0.273   0.016   0.001
  -3.878   0.061   0.311   0.019   0.001
  -3.871   0.071   0.361   0.022   0.001
  -3.864   0.083   0.430   0.026   0.001
  -3.857   0.100   0.526   0.031   0.002
  -3.850   0.124   0.664   0.039   0.002
  -3.844   0.159   0.872   0.051   0.003
  -3.837   0.213   1.198   0.070   0.004
  -3.830   0.301   1.742   0.101   0.005
  -3.823   0.454   2.700   0.155   0.008
  -3.816   0.719   4.388   0.250   0.013
  -3.809   1.081   6.695   0.380   0.020
  -3.803   1.193   7.334   0.417   0.022
  -3.796   0.906   5.304   0.306   0.016
  -3.789   0.634   3.314   0.197   0.010
  -3.782   0.504   2.156   0.137   0.007
  -3.775   0.485   1.546   0.109   0.005
  -3.769   0.567   1.256   0.104   0.005
  -3.762   0.781   1.197   0.121   0.005
  -3.755   1.187   1.354   0.165   0.007
  -3.748   1.651   1.599   0.217   0.009
  -3.741   1.570   1.468   0.204   0.008
  -3.735   1.053   1.034   0.139   0.006
  -3.728   0.652   0.698   0.089   0.004
  -3.721   0.422   0.496   0.059   0.002
  -3.714   0.290   0.375   0.042   0.002
  -3.707   0.211   0.296   0.032   0.001
  -3.701   0.160   0.243   0.025   0.001
  -3.694   0.126   0.204   0.020   0.001
  -3.687   0.102   0.175   0.017   0.001
  -3.680   0.084   0.153   0.014   0.001
  -3.673   0.071   0.135   0.012   0.001
  -3.667   0.061   0.120   0.011   0.001
  -3.660   0.052   0.108   0.009   0.000
  -3.653   0.046   0.098   0.008   0.000
  -3.646   0.041   0.090   0.008   0.000
  -3.639   0.036   0.083   0.007   0.000
  -3.633   0.032   0.076   0.006   0.000
  -3.626   0.029   0.071   0.006   0.000
  -3.619   0.027   0.066   0.005   0.000
  -3.612   0.024   0.062   0.005   0.000
  -3.605   0.022   0.058   0.005   0.000
  -3.599   0.021   0.054   0.004   0.000
  -3.592   0.019   0.051   0.004   0.000
  -3.585   0.018   0.049   0.004   0.000
  -3.578   0.016   0.046   0.004   0.000
  -3.571   0.015   0.044   0.003   0.000
  -3.565   0.014   0.042   0.003   0.000
  -3.558   0.013   0.040   0.003   0.000
  -3.551   0.013   0.038   0.003   0.000
  -3.544   0.012   0.037   0.003   0.000
  -3.537   0.011   0.035   0.003   0.000
  -3.531   0.011   0.034   0.003   0.000
  -3.524   0.010   0.033   0.002   0.000
  -3.517   0.010   0.032   0.002   0.000
  -3.510   0.009   0.031   0.002   0.000
  -3.503   0.009   0.030   0.002   0.000
  -3.497   0.008   0.029   0.002   0.000
  -3.490   0.008   0.028   0.002   0.000
  -3.483   0.008   0.028   0.002   0.000
  -3.476   0.007   0.027   0.002   0.000
  -3.469   0.007   0.026   0.002   0.000
  -3.463   0.007   0.026   0.002   0.000
  -3.456   0.007   0.025   0.002   0.000
  -3.449   0.006   0.025   0.002   0.000
  -3.442   0.006   0.024   0.002   0.000
  -3.435   0.006   0.024   0.002   0.000
  -3.429   0.006   0.024   0.002   0.000
  -3.422   0.005   0.023   0.002   0.000
  -3.415   0.005   0.023   0.002   0.000
  -3.408   0.005   0.023   0.002   0.000
  -3.401   0.005   0.023   0.001   0.000
  -3.395   0.005   0.023   0.001   0.000
  -3.388   0.005   0.022   0.001   0.000
  -3.381   0.004   0.022   0.001   0.000
  -3.374   0.004   0.022   0.001   0.000
  -3.367   0.004   0.022   0.001   0.000
  -3.361   0.004   0.022   0.001   0.000
  -3.354   0.004   0.022   0.001   0.000
  -3.347   0.004   0.023   0.001   0.000
  -3.340   0.004   0.023   0.001   0.000
  -3.333   0.004   0.023   0.001   0.000
  -3.327   0.004   0.023   0.001   0.000
  -3.320   0.004   0.024   0.001   0.000
  -3.313   0.003   0.024   0.001   0.000
  -3.306   0.003   0.024   0.001   0.000
  -3.299   0.003   0.025   0.001   0.000
  -3.292   0.003   0.026   0.001   0.000
  -3.286   0.003   0.026   0.001   0.000
  -3.279   0.003   0.027   0.001   0.000
  -3.272   0.003   0.028   0.001   0.000
  -3.265   0.003   0.029   0.001   0.000
  -3.258   0.003   0.031   0.001   0.000
  -3.252   0.003   0.032   0.001   0.000
  -3.245   0.003   0.034   0.001   0.000
  -3.238   0.003   0.036   0.001   0.000
  -3.231   0.003   0.039   0.001   0.000
  -3.224   0.003   0.042   0.001   0.000
  -3.218   0.003   0.045   0.002   0.000
  -3.211   0.002   0.049   0.002   0.000
  -3.204   0.002   0.054   0.002   0.000
  -3.197   0.002   0.060   0.002   0.000
  -3.190   0.002   0.068   0.002   0.000
  -3.184   0.002   0.077   0.002   0.000
  -3.177   0.002   0.089   0.002   0.001
  -3.170   0.002   0.105   0.003   0.001
  -3.163   0.002   0.126   0.003   0.001
  -3.156   0.002   0.154   0.003   0.001
  -3.150   0.002   0.195   0.004   0.001
  -3.143   0.002   0.255   0.005   0.002
  -3.136   0.002   0.347   0.007   0.002
  -3.129   0.002   0.500   0.009   0.003
  -3.122   0.002   0.765   0.014   0.005
  -3.116   0.002   1.238   0.022   0.008
  -3.109   0.002   1.964   0.034   0.012
  -3.102   0.002   2.403   0.041   0.015
  -3.095   0.002   1.888   0.033   0.012
  -3.088   0.002   1.179   0.021   0.007
  -3.082   0.002   0.732   0.013   0.004
  -3.075   0.002   0.481   0.009   0.003
  -3.068   0.002   0.336   0.006   0.002
  -3.061   0.002   0.248   0.005   0.002
  -3.054   0.002   0.190   0.004   0.001
  -3.048   0.002   0.151   0.003   0.001
  -3.041   0.002   0.124   0.003   0.001
  -3.034   0.002   0.103   0.002   0.001
  -3.027   0.002   0.088   0.002   0.001
  -3.020   0.002   0.077   0.002   0.000
  -3.014   0.002   0.067   0.002   0.000
  -3.007   0.002   0.060   0.002   0.000
  -3.000   0.002   0.054   0.002   0.000
  -2.993   0.002   0.049   0.002   0.000
  -2.986   0.002   0.045   0.002   0.000
  -2.980   0.001   0.042   0.001   0.000
  -2.973   0.001   0.039   0.001   0.000
  -2.966   0.001   0.037   0.001   0.000
  -2.959   0.001   0.035   0.001   0.000
  -2.952   0.001   0.033   0.001   0.000
  -2.946   0.001   0.032   0.001   0.000
  -2.939   0.001   0.031   0.001   0.000
  -2.932   0.001   0.030   0.001   0.000
  -2.925   0.001   0.029   0.001   0.000
  -2.918   0.001   0.028   0.001   0.000
  -2.912   0.001   0.027   0.001   0.000
  -2.905   0.001   0.027   0.001   0.000
  -2.898   0.001   0.026   0.001   0.000
  -2.891   0.001   0.026   0.001   0.000
  -2.884   0.001   0.025   0.001   0.000
  -2.878   0.001   0.025   0.001   0.000
  -2.871   0.001   0.025   0.001   0.000
  -2.864   0.001   0.025   0.001   0.000
  -2.857   0.001   0.025   0.001   0.000
  -2.850   0.001   0.025   0.001   0.000
  -2.844   0.001   0.025   0.001   0.000
  -2.837   0.001   0.025   0.001   0.000
  -2.830   0.001   0.025   0.001   0.000
  -2.823   0.001   0.025   0.001   0.000
  -2.816   0.001   0.026   0.001   0.000
  -2.810   0.001   0.026   0.001   0.000
  -2.803   0.001   0.026   0.001   0.000
  -2.796   0.001   0.027   0.001   0.000
  -2.789   0.001   0.027   0.001   0.000
  -2.782   0.001   0.028   0.001   0.000
  -2.775   0.001   0.028   0.002   0.000
  -2.769   0.001   0.029   0.002   0.000
  -2.762   0.001   0.030   0.002   0.000
  -2.755   0.001   0.030   0.002   0.000
  -2.748   0.001   0.031   0.002   0.000
  -2.741   0.001   0.032   0.002   0.000
  -2.735   0.001   0.033   0.002   0.000
  -2.728   0.001   0.034   0.002   0.000
  -2.721   0.001   0.035   0.002   0.000
  -2.714   0.001   0.037   0.002   0.000
  -2.707   0.001   0.038   0.002   0.000
  -2.701   0.001   0.040   0.002   0.000
  -2.694   0.001   0.041   0.002   0.000
  -2.687   0.001   0.043   0.002   0.000
  -2.680   0.001   0.045   0.002   0.000
  -2.673   0.001   0.048   0.002   0.000
  -2.667   0.001   0.050   0.003   0.000
  -2.660   0.001   0.053   0.003   0.000
  -2.653   0.001   0.056   0.003   0.000
  -2.646   0.001   0.059   0.003   0.000
  -2.639   0.001   0.063   0.003   0.000
  -2.633   0.001   0.067   0.003   0.000
  -2.626   0.001   0.072   0.003   0.000
  -2.619   0.001   0.077   0.004   0.000
  -2.612   0.001   0.083   0.004   0.000
  -2.605   0.001   0.090   0.004   0.001
  -2.599   0.001   0.097   0.005   0.001
  -2.592   0.001   0.106   0.005   0.001
  -2.585   0.001   0.117   0.005   0.001
  -2.578   0.001   0.129   0.006   0.001
  -2.571   0.001   0.143   0.007   0.001
  -2.565   0.001   0.160   0.007   0.001
  -2.558   0.001   0.181   0.008   0.001
  -2.551   0.001   0.205   0.009   0.001
  -2.544   0.001   0.236   0.011   0.001
  -2.537   0.001   0.274   0.012   0.002
  -2.531   0.001   0.323   0.014   0.002
  -2.524   0.001   0.386   0.017   0.002
  -2.517   0.001   0.469   0.021   0.003
  -2.510   0.001   0.584   0.026   0.003
  -2.503   0.001   0.747   0.033   0.004
  -2.497   0.001   0.986   0.043   0.005
  -2.490   0.001   1.356   0.059   0.007
  -2.483   0.001   1.962   0.085   0.011
  -2.476   0.001   3.014   0.130   0.016
  -2.469   0.001   4.892   0.210   0.027
  -2.463   0.001   7.810   0.335   0.043
  -2.456   0.001   9.715   0.417   0.053
  -2.449   0.001   7.740   0.332   0.042
  -2.442   0.001   4.838   0.208   0.026
  -2.435   0.001   2.985   0.129   0.016
  -2.429   0.001   1.948   0.084   0.011
  -2.422   0.001   1.350   0.058   0.007
  -2.415   0.001   0.984   0.043   0.005
  -2.408   0.001   0.748   0.033   0.004
  -2.401   0.001   0.588   0.026   0.003
  -2.395   0.001   0.475   0.021   0.003
  -2.388   0.001   0.392   0.018   0.002
  -2.381   0.001   0.331   0.015   0.002
  -2.374   0.001   0.284   0.013   0.002
  -2.367   0.001   0.247   0.011   0.001
  -2.361   0.001   0.218   0.010   0.001
  -2.354   0.001   0.194   0.009   0.001
  -2.347   0.001   0.176   0.008   0.001
  -2.340   0.001   0.160   0.008   0.001
  -2.333   0.001   0.148   0.007   0.001
  -2.327   0.001   0.138   0.007   0.001
  -2.320   0.001   0.129   0.007   0.001
  -2.313   0.001   0.123   0.006   0.001
  -2.306   0.001   0.118   0.006   0.001
  -2.299   0.001   0.114   0.006   0.001
  -2.293   0.001   0.111   0.006   0.001
  -2.286   0.001   0.110   0.006   0.001
  -2.279   0.001   0.109   0.006   0.001
  -2.272   0.001   0.110   0.006   0.001
  -2.265   0.001   0.112   0.007   0.001
  -2.258   0.001   0.116   0.007   0.001
  -2.252   0.001   0.121   0.007   0.001
  -2.245   0.001   0.128   0.008   0.001
  -2.238   0.001   0.137   0.009   0.001
  -2.231   0.001   0.149   0.009   0.001
  -2.224   0.001   0.165   0.011   0.001
  -2.218   0.001   0.186   0.012   0.001
  -2.211   0.001   0.214   0.014   0.001
  -2.204   0.001   0.251   0.016   0.001
  -2.197   0.001   0.303   0.020   0.001
  -2.190   0.001   0.377   0.025   0.002
  -2.184   0.001   0.485   0.032   0.002
  -2.177   0.001   0.652   0.043   0.003
  -2.170   0.001   0.923   0.062   0.004
  -2.163   0.001   1.391   0.093   0.006
  -2.156   0.001   2.228   0.149   0.009
  -2.150   0.001   3.593   0.240   0.015
  -2.143   0.001   4.751   0.317   0.019
  -2.136   0.001   4.057   0.271   0.017
  -2.129   0.001   2.591   0.173   0.011
  -2.122   0.001   1.595   0.107   0.007
  -2.116   0.001   1.035   0.069   0.004
  -2.109   0.001   0.715   0.048   0.003
  -2.102   0.001   0.520   0.035   0.002
  -2.095   0.001   0.396   0.026   0.002
  -2.088   0.001   0.311   0.021   0.001
  -2.082   0.001   0.252   0.017   0.001
  -2.075   0.001   0.209   0.014   0.001
  -2.068   0.001   0.177   0.012   0.001
  -2.061   0.001   0.152   0.010   0.001
  -2.054   0.001   0.132   0.009   0.001
  -2.048   0.001   0.117   0.008   0.001
  -2.041   0.001   0.104   0.007   0.000
  -2.034   0.001   0.094   0.006   0.000
  -2.027   0.001   0.085   0.006   0.000
  -2.020   0.001   0.078   0.005   0.000
  -2.014   0.001   0.072   0.005   0.000
  -2.007   0.001   0.067   0.005   0.000
  -2.000   0.001   0.062   0.004   0.000
  -1.993   0.001   0.059   0.004   0.000
  -1.986   0.001   0.055   0.004   0.000
  -1.980   0.001   0.052   0.004   0.000
  -1.973   0.001   0.050   0.004   0.000
  -1.966   0.001   0.047   0.003   0.000
  -1.959   0.001   0.045   0.003   0.000
  -1.952   0.001   0.044   0.003   0.000
  -1.946   0.001   0.042   0.003   0.000
  -1.939   0.001   0.041   0.003   0.000
  -1.932   0.001   0.040   0.003   0.000
  -1.925   0.001   0.039   0.003   0.000
  -1.918   0.001   0.038   0.003   0.000
  -1.912   0.001   0.037   0.003   0.000
  -1.905   0.001   0.036   0.003   0.000
  -1.898   0.001   0.036   0.003   0.000
  -1.891   0.001   0.036   0.003   0.000
  -1.884   0.001   0.035   0.003   0.000
  -1.878   0.001   0.035   0.003   0.000
  -1.871   0.001   0.035   0.003   0.000
  -1.864   0.001   0.035   0.003   0.000
  -1.857   0.001   0.035   0.003   0.000
  -1.850   0.001   0.035   0.003   0.000
  -1.844   0.001   0.035   0.003   0.000
  -1.837   0.001   0.036   0.003   0.000
  -1.830   0.001   0.036   0.003   0.000
  -1.823   0.001   0.036   0.003   0.000
  -1.816   0.001   0.037   0.003   0.000
  -1.810   0.001   0.038   0.003   0.000
  -1.803   0.001   0.039   0.003   0.000
  -1.796   0.001   0.040   0.003   0.000
  -1.789   0.001   0.041   0.003   0.000
  -1.782   0.001   0.042   0.003   0.000
  -1.775   0.001   0.044   0.003   0.000
  -1.769   0.001   0.045   0.004   0.000
  -1.762   0.001   0.047   0.004   0.000
  -1.755   0.001   0.049   0.004   0.000
  -1.748   0.001   0.052   0.004   0.000
  -1.741   0.001   0.054   0.004   0.000
  -1.735   0.001   0.057   0.004   0.000
  -1.728   0.001   0.061   0.005   0.000
  -1.721   0.001   0.065   0.005   0.000
  -1.714   0.001   0.070   0.005   0.000
  -1.707   0.001   0.075   0.006   0.000
  -1.701   0.001   0.081   0.006   0.000
  -1.694   0.001   0.089   0.007   0.001
  -1.687   0.001   0.098   0.007   0.001
  -1.680   0.001   0.108   0.008   0.001
  -1.673   0.001   0.121   0.009   0.001
  -1.667   0.001   0.136   0.010   0.001
  -1.660   0.001   0.155   0.012   0.001
  -1.653   0.001   0.179   0.013   0.001
  -1.646   0.001   0.210   0.016   0.001
  -1.639   0.001   0.251   0.019   0.001
  -1.633   0.001   0.306   0.023   0.002
  -1.626   0.001   0.382   0.028   0.002
  -1.619   0.001   0.493   0.036   0.003
  -1.612   0.001   0.660   0.048   0.004
  -1.605   0.001   0.928   0.068   0.005
  -1.599   0.001   1.384   0.101   0.007
  -1.592   0.001   2.196   0.161   0.012
  -1.585   0.001   3.565   0.261   0.019
  -1.578   0.001   4.971   0.363   0.026
  -1.571   0.001   4.572   0.334   0.024
  -1.565   0.001   3.012   0.220   0.016
  -1.558   0.001   1.867   0.137   0.010
  -1.551   0.001   1.221   0.089   0.007
  -1.544   0.001   0.859   0.063   0.005
  -1.537   0.001   0.648   0.047   0.004
  -1.531   0.001   0.521   0.038   0.003
  -1.524   0.001   0.444   0.032   0.003
  -1.517   0.001   0.401   0.029   0.002
  -1.510   0.001   0.384   0.028   0.002
  -1.503   0.001   0.391   0.028   0.002
  -1.497   0.001   0.424   0.030   0.003
  -1.490   0.001   0.493   0.035   0.003
  -1.483   0.001   0.615   0.043   0.004
  -1.476   0.001   0.830   0.058   0.005
  -1.469   0.001   1.219   0.084   0.008
  -1.463   0.001   1.923   0.132   0.013
  -1.456   0.001   2.978   0.204   0.020
  -1.449   0.001   3.520   0.241   0.024
  -1.442   0.001   2.699   0.185   0.018
  -1.435   0.001   1.689   0.116   0.011
  -1.429   0.001   1.063   0.073   0.007
  -1.422   0.001   0.712   0.049   0.005
  -1.415   0.001   0.507   0.035   0.003
  -1.408   0.001   0.380   0.027   0.003
  -1.401   0.001   0.297   0.021   0.002
  -1.395   0.001   0.239   0.017   0.002
  -1.388   0.001   0.199   0.014   0.001
  -1.381   0.001   0.168   0.012   0.001
  -1.374   0.001   0.145   0.011   0.001
  -1.367   0.001   0.127   0.010   0.001
  -1.361   0.001   0.113   0.009   0.001
  -1.354   0.001   0.102   0.008   0.001
  -1.347   0.001   0.093   0.007   0.001
  -1.340   0.001   0.085   0.007   0.001
  -1.333   0.001   0.079   0.006   0.001
  -1.327   0.001   0.073   0.006   0.000
  -1.320   0.001   0.069   0.006   0.000
  -1.313   0.001   0.065   0.005   0.000
  -1.306   0.001   0.062   0.005   0.000
  -1.299   0.001   0.059   0.005   0.000
  -1.293   0.001   0.057   0.005   0.000
  -1.286   0.001   0.055   0.005   0.000
  -1.279   0.001   0.054   0.005   0.000
  -1.272   0.001   0.053   0.005   0.000
  -1.265   0.001   0.052   0.005   0.000
  -1.258   0.001   0.051   0.005   0.000
  -1.252   0.001   0.051   0.005   0.000
  -1.245   0.001   0.051   0.005   0.000
  -1.238   0.001   0.051   0.005   0.000
  -1.231   0.001   0.051   0.005   0.000
  -1.224   0.001   0.052   0.005   0.000
  -1.218   0.001   0.053   0.005   0.000
  -1.211   0.001   0.054   0.005   0.000
  -1.204   0.001   0.055   0.006   0.000
  -1.197   0.001   0.057   0.006   0.000
  -1.190   0.001   0.059   0.006   0.000
  -1.184   0.001   0.061   0.006   0.000
  -1.177   0.001   0.064   0.007   0.000
  -1.170   0.001   0.068   0.007   0.000
  -1.163   0.001   0.072   0.007   0.000
  -1.156   0.001   0.077   0.008   0.000
  -1.150   0.001   0.082   0.009   0.000
  -1.143   0.001   0.089   0.009   0.000
  -1.136   0.001   0.097   0.010   0.001
  -1.129   0.001   0.106   0.011   0.001
  -1.122   0.001   0.117   0.012   0.001
  -1.116   0.001   0.131   0.014   0.001
  -1.109   0.001   0.148   0.016   0.001
  -1.102   0.001   0.168   0.018   0.001
  -1.095   0.001   0.194   0.021   0.001
  -1.088   0.001   0.228   0.024   0.001
  -1.082   0.001   0.271   0.029   0.001
  -1.075   0.001   0.328   0.035   0.002
  -1.068   0.001   0.407   0.043   0.002
  -1.061   0.001   0.519   0.055   0.002
  -1.054   0.001   0.683   0.073   0.003
  -1.048   0.001   0.938   0.100   0.004
  -1.041   0.001   1.354   0.144   0.006
  -1.034   0.001   2.076   0.221   0.010
  -1.027   0.001   3.366   0.359   0.016
  -1.020   0.001   5.384   0.574   0.025
  -1.014   0.001   6.756   0.720   0.031
  -1.007   0.001   5.429   0.579   0.025
  -1.000   0.001   3.400   0.363   0.016
  -0.993   0.001   2.095   0.224   0.010
  -0.986   0.001   1.364   0.146   0.006
  -0.980   0.001   0.942   0.101   0.004
  -0.973   0.001   0.685   0.073   0.003
  -0.966   0.001   0.519   0.056   0.002
  -0.959   0.001   0.406   0.043   0.002
  -0.952   0.001   0.326   0.035   0.002
  -0.946   0.001   0.268   0.029   0.001
  -0.939   0.001   0.224   0.024   0.001
  -0.932   0.001   0.190   0.021   0.001
  -0.925   0.001   0.164   0.018   0.001
  -0.918   0.001   0.143   0.015   0.001
  -0.912   0.001   0.125   0.014   0.001
  -0.905   0.001   0.111   0.012   0.001
  -0.898   0.001   0.099   0.011   0.001
  -0.891   0.001   0.089   0.010   0.000
  -0.884   0.001   0.081   0.009   0.000
  -0.878   0.001   0.074   0.008   0.000
  -0.871   0.001   0.067   0.007   0.000
  -0.864   0.001   0.062   0.007   0.000
  -0.857   0.001   0.057   0.006   0.000
  -0.850   0.001   0.053   0.006   0.000
  -0.844   0.001   0.049   0.006   0.000
  -0.837   0.001   0.046   0.005   0.000
  -0.830   0.001   0.043   0.005   0.000
  -0.823   0.001   0.041   0.005   0.000
  -0.816   0.001   0.038   0.004   0.000
  -0.810   0.001   0.036   0.004   0.000
  -0.803   0.001   0.034   0.004   0.000
  -0.796   0.001   0.032   0.004   0.000
  -0.789   0.001   0.031   0.004   0.000
  -0.782   0.001   0.029   0.004   0.000
  -0.776   0.001   0.028   0.003   0.000
  -0.769   0.001   0.027   0.003   0.000
  -0.762   0.001   0.026   0.003   0.000
  -0.755   0.001   0.025   0.003   0.000
  -0.748   0.001   0.024   0.003   0.000
  -0.741   0.001   0.023   0.003   0.000
  -0.735   0.001   0.022   0.003   0.000
  -0.728   0.001   0.021   0.003   0.000
  -0.721   0.001   0.020   0.003   0.000
  -0.714   0.001   0.020   0.003   0.000
  -0.707   0.001   0.019   0.002   0.000
  -0.701   0.001   0.018   0.002   0.000
  -0.694   0.001   0.018   0.002   0.000
  -0.687   0.001   0.017   0.002   0.000
  -0.680   0.001   0.017   0.002   0.000
  -0.673   0.001   0.016   0.002   0.000
  -0.667   0.001   0.016   0.002   0.000
  -0.660   0.001   0.016   0.002   0.000
  -0.653   0.001   0.015   0.002   0.000
  -0.646   0.001   0.015   0.002   0.000
  -0.639   0.001   0.015   0.002   0.000
  -0.633   0.001   0.014   0.002   0.000
  -0.626   0.001   0.014   0.002   0.000
  -0.619   0.001   0.014   0.002   0.000
  -0.612   0.001   0.014   0.002   0.000
  -0.605   0.001   0.013   0.002   0.000
  -0.599   0.001   0.013   0.002   0.000
  -0.592   0.001   0.013   0.002   0.000
  -0.585   0.001   0.013   0.002   0.000
  -0.578   0.001   0.013   0.002   0.000
  -0.571   0.001   0.013   0.002   0.000
  -0.565   0.001   0.012   0.002   0.000
  -0.558   0.001   0.012   0.002   0.000
  -0.551   0.001   0.012   0.002   0.000
  -0.544   0.001   0.012   0.002   0.000
  -0.537   0.001   0.012   0.002   0.000
  -0.531   0.001   0.012   0.002   0.000
  -0.524   0.001   0.012   0.002   0.000
  -0.517   0.001   0.012   0.002   0.000
  -0.510   0.001   0.012   0.002   0.000
  -0.503   0.001   0.012   0.002   0.000
  -0.497   0.001   0.012   0.002   0.000
  -0.490   0.001   0.012   0.002   0.000
  -0.483   0.001   0.012   0.002   0.000
  -0.476   0.001   0.013   0.002   0.000
  -0.469   0.001   0.013   0.002   0.000
  -0.463   0.001   0.013   0.002   0.000
  -0.456   0.001   0.013   0.002   0.000
  -0.449   0.001   0.013   0.002   0.000
  -0.442   0.001   0.014   0.002   0.000
  -0.435   0.001   0.014   0.003   0.000
  -0.429   0.001   0.015   0.003   0.000
  -0.422   0.001   0.015   0.003   0.000
  -0.415   0.001   0.016   0.003   0.000
  -0.408   0.001   0.016   0.003   0.000
  -0.401   0.001   0.017   0.003   0.000
  -0.395   0.001   0.018   0.003   0.000
  -0.388   0.001   0.019   0.004   0.000
  -0.381   0.001   0.021   0.004   0.000
  -0.374   0.001   0.022   0.004   0.000
  -0.367   0.001   0.024   0.004   0.000
  -0.361   0.001   0.026   0.005   0.000
  -0.354   0.001   0.029   0.005   0.000
  -0.347   0.001   0.032   0.006   0.000
  -0.340   0.001   0.036   0.006   0.000
  -0.333   0.001   0.042   0.007   0.000
  -0.327   0.001   0.048   0.008   0.000
  -0.320   0.001   0.057   0.010   0.000
  -0.313   0.001   0.069   0.012   0.000
  -0.306   0.001   0.085   0.015   0.000
  -0.299   0.001   0.108   0.019   0.000
  -0.293   0.001   0.143   0.024   0.000
  -0.286   0.001   0.197   0.033   0.001
  -0.279   0.001   0.287   0.049   0.001
  -0.272   0.001   0.446   0.075   0.001
  -0.265   0.001   0.726   0.122   0.002
  -0.259   0.001   1.120   0.188   0.003
  -0.252   0.001   1.253   0.210   0.004
  -0.245   0.001   0.914   0.154   0.003
  -0.238   0.001   0.563   0.095   0.002
  -0.231   0.001   0.352   0.060   0.001
  -0.224   0.001   0.234   0.040   0.001
  -0.218   0.001   0.165   0.028   0.001
  -0.211   0.001   0.122   0.021   0.000
  -0.204   0.001   0.094   0.016   0.000
  -0.197   0.001   0.075   0.013   0.000
  -0.190   0.001   0.061   0.011   0.000
  -0.184   0.001   0.051   0.009   0.000
  -0.177   0.001   0.044   0.008   0.000
  -0.170   0.001   0.038   0.007   0.000
  -0.163   0.001   0.033   0.006   0.000
  -0.156   0.001   0.029   0.006   0.000
  -0.150   0.001   0.026   0.005   0.000
  -0.143   0.001   0.024   0.005   0.000
  -0.136   0.001   0.021   0.004   0.000
  -0.129   0.001   0.020   0.004   0.000
  -0.122   0.001   0.018   0.004   0.000
  -0.116   0.001   0.017   0.004   0.000
  -0.109   0.001   0.016   0.003   0.000
  -0.102   0.001   0.015   0.003   0.000
  -0.095   0.001   0.014   0.003   0.000
  -0.088   0.001   0.013   0.003   0.000
  -0.082   0.001   0.012   0.003   0.000
  -0.075   0.001   0.012   0.003   0.000
  -0.068   0.001   0.011   0.003   0.000
  -0.061   0.001   0.011   0.003   0.000
  -0.054   0.002   0.010   0.003   0.000
  -0.048   0.002   0.010   0.003   0.000
  -0.041   0.002   0.010   0.003   0.000
  -0.034   0.002   0.009   0.003   0.000
  -0.027   0.002   0.009   0.003   0.000
  -0.020   0.002   0.009   0.003   0.000
  -0.014   0.002   0.008   0.003   0.000
  -0.007   0.002   0.008   0.003   0.000
   0.000   0.002   0.008   0.003   0.000
   0.007   0.002   0.008   0.003   0.000
   0.014   0.002   0.008   0.003   0.000
   0.020   0.002   0.008   0.003   0.000
   0.027   0.002   0.007   0.003   0.000
   0.034   0.002   0.007   0.003   0.000
   0.041   0.002   0.007   0.003   0.000
   0.048   0.002   0.007   0.003   0.000
   0.054   0.002   0.007   0.003   0.000
   0.061   0.002   0.007   0.003   0.000
   0.068   0.002   0.007   0.003   0.000
   0.075   0.002   0.007   0.003   0.000
   0.082   0.002   0.007   0.003   0.000
   0.088   0.002   0.007   0.003   0.000
   0.095   0.003   0.007   0.003   0.000
   0.102   0.003   0.007   0.003   0.000
   0.109   0.003   0.007   0.003   0.000
   0.116   0.003   0.007   0.003   0.000
   0.122   0.003   0.007   0.003   0.000
   0.129   0.003   0.007   0.004   0.000
   0.136   0.003   0.007   0.004   0.000
   0.143   0.003   0.007   0.004   0.000
   0.150   0.003   0.007   0.004   0.000
   0.156   0.004   0.007   0.004   0.000
   0.163   0.004   0.007   0.004   0.000
   0.170   0.004   0.007   0.005   0.000
   0.177   0.004   0.007   0.005   0.000
   0.184   0.004   0.007   0.005   0.000
   0.190   0.005   0.007   0.005   0.000
   0.197   0.005   0.007   0.006   0.000
   0.204   0.005   0.008   0.006   0.000
   0.211   0.006   0.008   0.006   0.000
   0.218   0.006   0.008   0.007   0.000
   0.224   0.006   0.008   0.007   0.000
   0.231   0.007   0.009   0.008   0.000
   0.238   0.008   0.009   0.009   0.000
   0.245   0.008   0.010   0.009   0.000
   0.252   0.009   0.010   0.010   0.000
   0.259   0.010   0.011   0.012   0.000
   0.265   0.012   0.012   0.013   0.000
   0.272   0.013   0.013   0.015   0.000
   0.279   0.015   0.015   0.017   0.000
   0.286   0.017   0.016   0.020   0.000
   0.293   0.020   0.019   0.023   0.000
   0.299   0.024   0.022   0.028   0.000
   0.306   0.030   0.026   0.034   0.000
   0.313   0.038   0.031   0.042   0.000
   0.320   0.048   0.040   0.054   0.000
   0.327   0.065   0.052   0.073   0.000
   0.333   0.091   0.071   0.103   0.000
   0.340   0.135   0.105   0.152   0.000
   0.347   0.214   0.163   0.241   0.000
   0.354   0.350   0.265   0.394   0.001
   0.361   0.510   0.385   0.574   0.001
   0.367   0.503   0.380   0.567   0.001
   0.374   0.340   0.258   0.383   0.001
   0.381   0.208   0.159   0.234   0.000
   0.388   0.132   0.102   0.149   0.000
   0.395   0.090   0.070   0.101   0.000
   0.401   0.064   0.051   0.072   0.000
   0.408   0.048   0.039   0.054   0.000
   0.415   0.037   0.031   0.042   0.000
   0.422   0.030   0.026   0.034   0.000
   0.429   0.025   0.022   0.028   0.000
   0.435   0.021   0.019   0.023   0.000
   0.442   0.018   0.017   0.020   0.000
   0.449   0.016   0.015   0.017   0.000
   0.456   0.014   0.014   0.015   0.000
   0.463   0.012   0.013   0.014   0.000
   0.469   0.011   0.012   0.012   0.000
   0.476   0.010   0.011   0.011   0.000
   0.483   0.009   0.010   0.010   0.000
   0.490   0.009   0.010   0.010   0.000
   0.497   0.008   0.010   0.009   0.000
   0.503   0.008   0.009   0.008   0.000
   0.510   0.007   0.009   0.008   0.000
   0.517   0.007   0.009   0.008   0.000
   0.524   0.007   0.009   0.007   0.000
   0.531   0.007   0.009   0.007   0.000
   0.537   0.006   0.008   0.007   0.000
   0.544   0.006   0.008   0.007   0.000
   0.551   0.006   0.008   0.007   0.000
   0.558   0.006   0.008   0.006   0.000
   0.565   0.006   0.008   0.006   0.000
   0.571   0.006   0.008   0.006   0.000
   0.578   0.006   0.009   0.006   0.000
   0.585   0.006   0.009   0.006   0.000
   0.592   0.006   0.009   0.006   0.000
   0.599   0.006   0.009   0.006   0.000
   0.605   0.006   0.009   0.006   0.000
   0.612   0.006   0.009   0.006   0.000
   0.619   0.006   0.010   0.006   0.000
   0.626   0.007   0.010   0.007   0.000
   0.633   0.007   0.010   0.007   0.000
   0.639   0.007   0.011   0.007   0.000
   0.646   0.007   0.011   0.007   0.000
   0.653   0.007   0.012   0.008   0.000
   0.660   0.008   0.012   0.008   0.000
   0.667   0.008   0.013   0.008   0.000
   0.673   0.009   0.014   0.009   0.000
   0.680   0.009   0.015   0.009   0.000
   0.687   0.010   0.016   0.010   0.000
   0.694   0.010   0.017   0.011   0.000
   0.701   0.011   0.019   0.011   0.000
   0.707   0.012   0.021   0.012   0.000
   0.714   0.014   0.023   0.014   0.001
   0.721   0.015   0.026   0.015   0.001
   0.728   0.017   0.030   0.017   0.001
   0.735   0.020   0.035   0.020   0.001
   0.741   0.023   0.041   0.023   0.001
   0.748   0.027   0.049   0.028   0.001
   0.755   0.033   0.061   0.034   0.001
   0.762   0.041   0.077   0.043   0.002
   0.769   0.054   0.102   0.056   0.002
   0.776   0.074   0.141   0.076   0.003
   0.782   0.107   0.205   0.111   0.005
   0.789   0.165   0.318   0.171   0.007
   0.796   0.267   0.517   0.277   0.012
   0.803   0.406   0.790   0.423   0.018
   0.810   0.445   0.866   0.463   0.020
   0.816   0.321   0.624   0.334   0.014
   0.823   0.199   0.385   0.207   0.009
   0.830   0.127   0.242   0.131   0.006
   0.837   0.086   0.163   0.089   0.004
   0.844   0.062   0.116   0.064   0.003
   0.850   0.048   0.087   0.049   0.002
   0.857   0.038   0.068   0.039   0.002
   0.864   0.031   0.055   0.032   0.001
   0.871   0.027   0.046   0.027   0.001
   0.878   0.024   0.039   0.023   0.001
   0.884   0.021   0.034   0.021   0.001