  -4.082   0.006   0.026   0.002   0.000
  -4.075   0.006   0.026   0.002   0.000
  -4.068   0.005   0.025   0.002   0.000
  -4.061   0.005   0.025   0.002   0.000
  -4.054   0.005   0.024   0.002   0.000
  -4.048   0.005   0.024   0.002   0.000
  -4.041   0.005   0.024   0.002   0.000
  -4.034   0.005   0.023   0.002   0.000
  -4.027   0.004   0.023   0.002   0.000
  -4.020   0.004   0.023   0.002   0.000
  -4.014   0.004   0.023   0.002   0.000
  -4.007   0.004   0.022   0.002   0.000
  -4.000   0.004   0.022   0.002   0.000
  -3.993   0.004   0.022   0.001   0.000
  -3.986   0.004   0.022   0.001   0.000
  -3.980   0.003   0.022   0.001   0.000
  -3.973   0.003   0.022   0.001   0.000
  -3.966   0.003   0.023   0.001   0.000
  -3.959   0.003   0.023   0.001   0.000
  -3.952   0.003   0.023   0.001   0.000
  -3.946   0.003   0.023   0.001   0.000
  -3.939   0.003   0.024   0.001   0.000
  -3.932   0.003   0.024   0.001   0.000
  -3.925   0.003   0.025   0.001   0.000
  -3.918   0.003   0.025   0.001   0.000
  -3.912   0.003   0.026   0.001   0.000
  -3.905   0.003   0.027   0.001   0.000
  -3.898   0.003   0.028   0.001   0.000
  -3.891   0.002   0.029   0.001   0.000
  -3.884   0.002   0.030   0.001   0.000
  -3.878   0.002   0.031   0.002   0.000
  -3.871   0.002   0.033   0.002   0.000
  -3.864   0.002   0.035   0.002   0.000
  -3.857   0.002   0.037   0.002   0.000
  -3.850   0.002   0.040   0.002   0.000
  -3.844   0.002   0.044   0.002   0.000
  -3.837   0.002   0.047   0.002   0.000
  -3.830   0.002   0.052   0.002   0.000
  -3.823   0.002   0.058   0.002   0.000
  -3.816   0.002   0.065   0.002   0.000
  -3.809   0.002   0.074   0.003   0.000
  -3.803   0.002   0.086   0.003   0.001
  -3.796   0.002   0.101   0.003   0.001
  -3.789   0.002   0.121   0.004   0.001
  -3.782   0.002   0.149   0.005   0.001
  -3.775   0.002   0.188   0.006   0.001
  -3.769   0.002   0.245   0.007   0.001
  -3.762   0.002   0.334   0.010   0.002
  -3.755   0.002   0.479   0.014   0.003
  -3.748   0.002   0.732   0.021   0.004
  -3.741   0.002   1.183   0.033   0.007
  -3.735   0.002   1.886   0.053   0.011
  -3.728   0.002   2.353   0.066   0.014
  -3.721   0.002   1.883   0.053   0.011
  -3.714   0.002   1.181   0.033   0.007
  -3.707   0.001   0.731   0.021   0.004
  -3.701   0.001   0.479   0.014   0.003
  -3.694   0.001   0.333   0.010   0.002
  -3.687   0.001   0.245   0.007   0.001
  -3.680   0.001   0.187   0.006   0.001
  -3.673   0.001   0.148   0.005   0.001
  -3.667   0.001   0.121   0.004   0.001
  -3.660   0.001   0.101   0.003   0.001
  -3.653   0.001   0.085   0.003   0.001
  -3.646   0.001   0.074   0.003   0.000
  -3.639   0.001   0.065   0.002   0.000
  -3.633   0.001   0.057   0.002   0.000
  -3.626   0.001   0.052   0.002   0.000
  -3.619   0.001   0.047   0.002   0.000
  -3.612   0.001   0.043   0.002   0.000
  -3.605   0.001   0.039   0.002   0.000
  -3.599   0.001   0.037   0.002   0.000
  -3.592   0.001   0.034   0.002   0.000
  -3.585   0.001   0.032   0.001   0.000
  -3.578   0.001   0.030   0.001   0.000
  -3.571   0.001   0.029   0.001   0.000
  -3.565   0.001   0.027   0.001   0.000
  -3.558   0.001   0.026   0.001   0.000
  -3.551   0.001   0.025   0.001   0.000
  -3.544   0.001   0.024   0.001   0.000
  -3.537   0.001   0.024   0.001   0.000
  -3.531   0.001   0.023   0.001   0.000
  -3.524   0.001   0.022   0.001   0.000
  -3.517   0.001   0.022   0.001   0.000
  -3.510   0.001   0.021   0.001   0.000
  -3.503   0.001   0.021   0.001   0.000
  -3.497   0.001   0.021   0.001   0.000
  -3.490   0.001   0.021   0.001   0.000
  -3.483   0.001   0.020   0.001   0.000
  -3.476   0.001   0.020   0.001   0.000
  -3.469   0.001   0.020   0.001   0.000
  -3.463   0.001   0.020   0.001   0.000
  -3.456   0.001   0.020   0.001   0.000
  -3.449   0.001   0.020   0.001   0.000
  -3.442   0.001   0.020   0.001   0.000
  -3.435   0.001   0.020   0.001   0.000
  -3.429   0.001   0.020   0.001   0.000
  -3.422   0.001   0.020   0.001   0.000
  -3.415   0.001   0.020   0.001   0.000
  -3.408   0.001   0.020   0.001   0.000
  -3.401   0.001   0.020   0.001   0.000
  -3.395   0.001   0.021   0.001   0.000
  -3.388   0.001   0.021   0.001   0.000
  -3.381   0.001   0.021   0.001   0.000
  -3.374   0.001   0.021   0.001   0.000
  -3.367   0.001   0.022   0.001   0.000
  -3.361   0.001   0.022   0.001   0.000
  -3.354   0.001   0.023   0.001   0.000
  -3.347   0.001   0.023   0.001   0.000
  -3.340   0.001   0.024   0.001   0.000
  -3.333   0.001   0.024   0.002   0.000
  -3.327   0.001   0.025   0.002   0.000
  -3.320   0.001   0.025   0.002   0.000
  -3.313   0.001   0.026   0.002   0.000
  -3.306   0.001   0.027   0.002   0.000
  -3.299   0.001   0.027   0.002   0.000
  -3.292   0.001   0.028   0.002   0.000
  -3.286   0.001   0.029   0.002   0.000
  -3.279   0.001   0.030   0.002   0.000
  -3.272   0.001   0.031   0.002   0.000
  -3.265   0.001   0.033   0.002   0.000
  -3.258   0.001   0.034   0.002   0.000
  -3.252   0.001   0.035   0.002   0.000
  -3.245   0.001   0.037   0.002   0.000
  -3.238   0.001   0.038   0.002   0.000
  -3.231   0.001   0.040   0.002   0.000
  -3.224   0.001   0.042   0.003   0.000
  -3.218   0.001   0.044   0.003   0.000
  -3.211   0.001   0.047   0.003   0.000
  -3.204   0.001   0.049   0.003   0.000
  -3.197   0.001   0.052   0.003   0.000
  -3.190   0.001   0.055   0.003   0.000
  -3.184   0.001   0.059   0.003   0.000
  -3.177   0.001   0.063   0.004   0.000
  -3.170   0.001   0.067   0.004   0.000
  -3.163   0.001   0.072   0.004   0.000
  -3.156   0.001   0.078   0.004   0.000
  -3.150   0.001   0.084   0.005   0.000
  -3.143   0.001   0.092   0.005   0.001
  -3.136   0.001   0.100   0.006   0.001
  -3.129   0.001   0.110   0.006   0.001
  -3.122   0.001   0.121   0.007   0.001
  -3.116   0.001   0.134   0.008   0.001
  -3.109   0.001   0.150   0.008   0.001
  -3.102   0.001   0.169   0.009   0.001
  -3.095   0.001   0.192   0.011   0.001
  -3.088   0.001   0.220   0.012   0.001
  -3.082   0.001   0.255   0.014   0.001
  -3.075   0.001   0.300   0.016   0.002
  -3.068   0.001   0.357   0.019   0.002
  -3.061   0.001   0.432   0.024   0.002
  -3.054   0.001   0.535   0.029   0.003
  -3.048   0.001   0.679   0.037   0.004
  -3.041   0.001   0.888   0.048   0.005
  -3.034   0.001   1.206   0.065   0.007
  -3.027   0.001   1.719   0.092   0.010
  -3.020   0.001   2.595   0.139   0.015
  -3.014   0.001   4.158   0.223   0.023
  -3.007   0.001   6.776   0.363   0.038
  -3.000   0.001   9.358   0.501   0.052
  -2.993   0.001   8.440   0.452   0.047
  -2.986   0.001   5.483   0.294   0.031
  -2.980   0.001   3.352   0.180   0.019
  -2.973   0.001   2.147   0.115   0.012
  -2.966   0.001   1.461   0.079   0.008
  -2.959   0.001   1.050   0.057   0.006
  -2.952   0.001   0.788   0.043   0.004
  -2.946   0.001   0.612   0.033   0.003
  -2.939   0.001   0.490   0.027   0.003
  -2.932   0.001   0.401   0.022   0.002
  -2.925   0.001   0.335   0.018   0.002
  -2.918   0.001   0.285   0.016   0.002
  -2.912   0.001   0.245   0.014   0.001
  -2.905   0.001   0.214   0.012   0.001
  -2.898   0.001   0.189   0.011   0.001
  -2.891   0.001   0.169   0.010   0.001
  -2.884   0.001   0.153   0.009   0.001
  -2.878   0.001   0.139   0.008   0.001
  -2.871   0.001   0.127   0.007   0.001
  -2.864   0.001   0.118   0.007   0.001
  -2.857   0.001   0.110   0.007   0.001
  -2.850   0.001   0.103   0.006   0.001
  -2.844   0.001   0.097   0.006   0.001
  -2.837   0.001   0.093   0.006   0.001
  -2.830   0.001   0.089   0.006   0.000
  -2.823   0.001   0.086   0.006   0.000
  -2.816   0.001   0.083   0.005   0.000
  -2.810   0.001   0.082   0.005   0.000
  -2.803   0.001   0.080   0.005   0.000
  -2.796   0.001   0.080   0.005   0.000
  -2.789   0.001   0.080   0.006   0.000
  -2.782   0.001   0.081   0.006   0.000
  -2.775   0.001   0.082   0.006   0.000
  -2.769   0.001   0.085   0.006   0.000
  -2.762   0.000   0.088   0.006   0.000
  -2.755   0.000   0.092   0.007   0.000
  -2.748   0.000   0.097   0.007   0.000
  -2.741   0.000   0.103   0.008   0.001
  -2.735   0.000   0.112   0.008   0.001
  -2.728   0.000   0.122   0.009   0.001
  -2.721   0.000   0.136   0.010   0.001
  -2.714   0.000   0.153   0.012   0.001
  -2.707   0.000   0.175   0.014   0.001
  -2.701   0.000   0.204   0.016   0.001
  -2.694   0.000   0.243   0.019   0.001
  -2.687   0.000   0.296   0.023   0.001
  -2.680   0.000   0.372   0.029   0.002
  -2.673   0.000   0.484   0.038   0.002
  -2.667   0.000   0.657   0.052   0.003
  -2.660   0.000   0.939   0.074   0.004
  -2.653   0.000   1.429   0.113   0.006
  -2.646   0.000   2.305   0.183   0.010
  -2.639   0.000   3.692   0.292   0.015
  -2.633   0.000   4.696   0.372   0.020
  -2.626   0.000   3.833   0.304   0.016
  -2.619   0.000   2.414   0.191   0.010
  -2.612   0.000   1.490   0.118   0.006
  -2.605   0.000   0.972   0.077   0.004
  -2.599   0.000   0.674   0.053   0.003
  -2.592   0.000   0.492   0.039   0.002
  -2.585   0.000   0.375   0.030   0.002
  -2.578   0.000   0.295   0.023   0.001
  -2.571   0.000   0.239   0.019   0.001
  -2.565   0.000   0.198   0.016   0.001
  -2.558   0.000   0.167   0.013   0.001
  -2.551   0.000   0.143   0.011   0.001
  -2.544   0.000   0.125   0.010   0.001
  -2.537   0.000   0.110   0.009   0.001
  -2.531   0.000   0.098   0.008   0.000
  -2.524   0.000   0.088   0.007   0.000
  -2.517   0.000   0.080   0.006   0.000
  -2.510   0.000   0.073   0.006   0.000
  -2.503   0.000   0.067   0.005   0.000
  -2.497   0.000   0.062   0.005   0.000
  -2.490   0.000   0.058   0.005   0.000
  -2.483   0.000   0.054   0.004   0.000
  -2.476   0.000   0.051   0.004   0.000
  -2.469   0.000   0.048   0.004   0.000
  -2.463   0.000   0.045   0.004   0.000
  -2.456   0.000   0.043   0.004   0.000
  -2.449   0.000   0.041   0.003   0.000
  -2.442   0.000   0.039   0.003   0.000
  -2.435   0.000   0.038   0.003   0.000
  -2.429   0.000   0.037   0.003   0.000
  -2.422   0.000   0.035   0.003   0.000
  -2.415   0.000   0.034   0.003   0.000
  -2.408   0.000   0.033   0.003   0.000
  -2.401   0.000   0.033   0.003   0.000
  -2.395   0.000   0.032   0.003   0.000
  -2.388   0.000   0.031   0.003   0.000
  -2.381   0.000   0.031   0.003   0.000
  -2.374   0.000   0.030   0.003   0.000
  -2.367   0.000   0.030   0.003   0.000
  -2.361   0.000   0.030   0.003   0.000
  -2.354   0.000   0.029   0.003   0.000
  -2.347   0.000   0.029   0.003   0.000
  -2.340   0.000   0.029   0.003   0.000
  -2.333   0.000   0.029   0.003   0.000
  -2.327   0.000   0.029   0.003   0.000
  -2.320   0.000   0.029   0.003   0.000
  -2.313   0.000   0.029   0.003   0.000
  -2.306   0.000   0.030   0.003   0.000
  -2.299   0.000   0.030   0.003   0.000
  -2.293   0.000   0.030   0.003   0.000
  -2.286   0.000   0.031   0.003   0.000
  -2.279   0.000   0.031   0.003   0.000
  -2.272   0.000   0.032   0.003   0.000
  -2.265   0.000   0.033   0.003   0.000
  -2.258   0.000   0.034   0.003   0.000
  -2.252   0.000   0.035   0.003   0.000
  -2.245   0.000   0.036   0.003   0.000
  -2.238   0.000   0.037   0.003   0.000
  -2.231   0.000   0.038   0.003   0.000
  -2.224   0.000   0.040   0.003   0.000
  -2.218   0.000   0.041   0.004   0.000
  -2.211   0.000   0.043   0.004   0.000
  -2.204   0.000   0.045   0.004   0.000
  -2.197   0.000   0.047   0.004   0.000
  -2.190   0.000   0.050   0.004   0.000
  -2.184   0.000   0.053   0.005   0.000
  -2.177   0.000   0.056   0.005   0.000
  -2.170   0.000   0.060   0.005   0.000
  -2.163   0.000   0.065   0.006   0.000
  -2.156   0.000   0.070   0.006   0.000
  -2.150   0.000   0.076   0.007   0.000
  -2.143   0.000   0.083   0.007   0.000
  -2.136   0.000   0.091   0.008   0.001
  -2.129   0.000   0.101   0.009   0.001
  -2.122   0.000   0.112   0.010   0.001
  -2.116   0.000   0.127   0.011   0.001
  -2.109   0.000   0.144   0.012   0.001
  -2.102   0.000   0.166   0.014   0.001
  -2.095   0.000   0.194   0.017   0.001
  -2.088   0.000   0.231   0.020   0.001
  -2.082   0.000   0.280   0.024   0.002
  -2.075   0.000   0.347   0.030   0.002
  -2.068   0.000   0.444   0.038   0.003
  -2.061   0.001   0.588   0.050   0.003
  -2.054   0.001   0.814   0.069   0.005
  -2.048   0.001   1.192   0.101   0.007
  -2.041   0.001   1.858   0.158   0.010
  -2.034   0.001   3.025   0.256   0.017
  -2.027   0.002   4.555   0.386   0.025
  -2.020   0.002   4.826   0.409   0.027
  -2.014   0.001   3.410   0.289   0.019
  -2.007   0.001   2.111   0.179   0.012
  -2.000   0.001   1.353   0.115   0.008
  -1.993   0.001   0.932   0.079   0.005
  -1.986   0.001   0.690   0.059   0.004
  -1.980   0.000   0.546   0.046   0.003
  -1.973   0.000   0.459   0.039   0.003
  -1.966   0.000   0.411   0.035   0.002
  -1.959   0.000   0.390   0.033   0.002
  -1.952   0.000   0.395   0.033   0.002
  -1.946   0.000   0.427   0.036   0.003
  -1.939   0.000   0.496   0.041   0.003
  -1.932   0.000   0.621   0.052   0.004
  -1.925   0.000   0.843   0.070   0.006
  -1.918   0.000   1.247   0.103   0.008
  -1.912   0.000   1.973   0.163   0.013
  -1.905   0.000   3.008   0.248   0.020
  -1.898   0.000   3.382   0.279   0.023
  -1.891   0.000   2.493   0.206   0.017
  -1.884   0.000   1.550   0.128   0.010
  -1.878   0.000   0.981   0.081   0.007
  -1.871   0.000   0.661   0.055   0.004
  -1.864   0.000   0.474   0.040   0.003
  -1.857   0.000   0.356   0.030   0.002
  -1.850   0.000   0.279   0.023   0.002
  -1.844   0.000   0.226   0.019   0.002
  -1.837   0.000   0.187   0.016   0.001
  -1.830   0.000   0.159   0.014   0.001
  -1.823   0.000   0.137   0.012   0.001
  -1.816   0.000   0.120   0.010   0.001
  -1.810   0.000   0.106   0.009   0.001
  -1.803   0.000   0.095   0.008   0.001
  -1.796   0.000   0.086   0.008   0.001
  -1.789   0.000   0.079   0.007   0.001
  -1.782   0.000   0.072   0.007   0.000
  -1.775   0.000   0.067   0.006   0.000
  -1.769   0.000   0.063   0.006   0.000
  -1.762   0.000   0.059   0.005   0.000
  -1.755   0.000   0.056   0.005   0.000
  -1.748   0.000   0.053   0.005   0.000
  -1.741   0.000   0.050   0.005   0.000
  -1.735   0.000   0.048   0.005   0.000
  -1.728   0.000   0.046   0.005   0.000
  -1.721   0.000   0.045   0.004   0.000
  -1.714   0.000   0.044   0.004   0.000
  -1.707   0.000   0.042   0.004   0.000
  -1.701   0.000   0.042   0.004   0.000
  -1.694   0.000   0.041   0.004   0.000
  -1.687   0.000   0.040   0.004   0.000
  -1.680   0.000   0.040   0.004   0.000
  -1.673   0.000   0.040   0.004   0.000
  -1.667   0.000   0.039   0.004   0.000
  -1.660   0.000   0.039   0.004   0.000
  -1.653   0.000   0.040   0.004   0.000
  -1.646   0.000   0.040   0.004   0.000
  -1.639   0.000   0.040   0.004   0.000
  -1.633   0.000   0.041   0.005   0.000
  -1.626   0.000   0.042   0.005   0.000
  -1.619   0.000   0.043   0.005   0.000
  -1.612   0.000   0.044   0.005   0.000
  -1.605   0.000   0.046   0.005   0.000
  -1.599   0.000   0.047   0.005   0.000
  -1.592   0.000   0.049   0.006   0.000
  -1.585   0.000   0.051   0.006   0.000
  -1.578   0.000   0.054   0.006   0.000
  -1.571   0.000   0.057   0.007   0.000
  -1.565   0.000   0.060   0.007   0.000
  -1.558   0.000   0.064   0.008   0.000
  -1.551   0.000   0.069   0.008   0.000
  -1.544   0.000   0.074   0.009   0.000
  -1.537   0.000   0.081   0.010   0.000
  -1.531   0.000   0.088   0.010   0.000
  -1.524   0.000   0.097   0.012   0.001
  -1.517   0.000   0.107   0.013   0.001
  -1.510   0.000   0.120   0.014   0.001
  -1.503   0.000   0.135   0.016   0.001
  -1.497   0.000   0.153   0.018   0.001
  -1.490   0.000   0.177   0.021   0.001
  -1.483   0.000   0.206   0.025   0.001
  -1.476   0.000   0.244   0.030   0.001
  -1.469   0.000   0.295   0.036   0.001
  -1.463   0.000   0.363   0.044   0.002
  -1.456   0.000   0.458   0.055   0.002
  -1.449   0.000   0.596   0.072   0.003
  -1.442   0.000   0.806   0.098   0.004
  -1.435   0.000   1.141   0.138   0.006
  -1.429   0.000   1.709   0.207   0.008
  -1.422   0.000   2.722   0.330   0.013
  -1.415   0.000   4.451   0.539   0.022
  -1.408   0.000   6.354   0.770   0.031
  -1.401   0.000   6.032   0.731   0.029
  -1.395   0.000   4.002   0.485   0.019
  -1.388   0.000   2.443   0.296   0.012
  -1.381   0.000   1.553   0.188   0.008
  -1.374   0.000   1.050   0.127   0.005
  -1.367   0.000   0.749   0.091   0.004
  -1.361   0.000   0.559   0.068   0.003
  -1.354   0.000   0.432   0.052   0.002
  -1.347   0.000   0.344   0.042   0.002
  -1.340   0.000   0.280   0.034   0.001
  -1.333   0.000   0.232   0.028   0.001
  -1.327   0.000   0.196   0.024   0.001
  -1.320   0.000   0.168   0.020   0.001
  -1.313   0.000   0.145   0.018   0.001
  -1.306   0.000   0.127   0.015   0.001
  -1.299   0.000   0.112   0.014   0.001
  -1.293   0.000   0.100   0.012   0.001
  -1.286   0.000   0.090   0.011   0.000
  -1.279   0.000   0.081   0.010   0.000
  -1.272   0.000   0.073   0.009   0.000
  -1.265   0.000   0.067   0.008   0.000
  -1.258   0.000   0.061   0.008   0.000
  -1.252   0.000   0.057   0.007   0.000
  -1.245   0.000   0.052   0.006   0.000
  -1.238   0.000   0.048   0.006   0.000
  -1.231   0.000   0.045   0.006   0.000
  -1.224   0.000   0.042   0.005   0.000
  -1.218   0.000   0.040   0.005   0.000
  -1.211   0.000   0.037   0.005   0.000
  -1.204   0.000   0.035   0.004   0.000
  -1.197   0.000   0.033   0.004   0.000
  -1.190   0.000   0.031   0.004   0.000
  -1.184   0.000   0.030   0.004   0.000
  -1.177   0.000   0.028   0.004   0.000
  -1.170   0.000   0.027   0.003   0.000
  -1.163   0.000   0.026   0.003   0.000
  -1.156   0.000   0.024   0.003   0.000
  -1.150   0.000   0.023   0.003   0.000
  -1.143   0.000   0.022   0.003   0.000
  -1.136   0.000   0.021   0.003   0.000
  -1.129   0.000   0.021   0.003   0.000
  -1.122   0.000   0.020   0.003   0.000
  -1.116   0.000   0.019   0.003   0.000
  -1.109   0.000   0.018   0.002   0.000
  -1.102   0.000   0.018   0.002   0.000
  -1.095   0.000   0.017   0.002   0.000
  -1.088   0.000   0.017   0.002   0.000
  -1.082   0.000   0.016   0.002   0.000
  -1.075   0.000   0.016   0.002   0.000
  -1.068   0.000   0.015   0.002   0.000
  -1.061   0.000   0.015   0.002   0.000
  -1.054   0.000   0.014   0.002   0.000
  -1.048   0.000   0.014   0.002   0.000
  -1.041   0.000   0.014   0.002   0.000
  -1.034   0.000   0.013   0.002   0.000
  -1.027   0.000   0.013   0.002   0.000
  -1.020   0.000   0.013   0.002   0.000
  -1.014   0.000   0.013   0.002   0.000
  -1.007   0.000   0.012   0.002   0.000
  -1.000   0.000   0.012   0.002   0.000
  -0.993   0.000   0.012   0.002   0.000
  -0.986   0.000   0.012   0.002   0.000
  -0.980   0.000   0.011   0.002   0.000
  -0.973   0.000   0.011   0.002   0.000
  -0.966   0.000   0.011   0.002   0.000
  -0.959   0.000   0.011   0.002   0.000
  -0.952   0.000   0.011   0.002   0.000
  -0.946   0.000   0.011   0.002   0.000
  -0.939   0.000   0.011   0.002   0.000
  -0.932   0.000   0.011   0.002   0.000
  -0.925   0.000   0.010   0.002   0.000
  -0.918   0.000   0.010   0.002   0.000
  -0.912   0.000   0.010   0.002   0.000
  -0.905   0.000   0.010   0.002   0.000
  -0.898   0.000   0.010   0.002   0.000
  -0.891   0.000   0.010   0.002   0.000
  -0.884   0.000   0.010   0.002   0.000
  -0.878   0.000   0.010   0.002   0.000
  -0.871   0.000   0.010   0.002   0.000
  -0.864   0.000   0.010   0.002   0.000
  -0.857   0.000   0.010   0.002   0.000
  -0.850   0.000   0.011   0.002   0.000
  -0.844   0.000   0.011   0.002   0.000
  -0.837   0.000   0.011   0.002   0.000
  -0.830   0.000   0.011   0.002   0.000
  -0.823   0.000   0.011   0.002   0.000
  -0.816   0.000   0.011   0.002   0.000
  -0.810   0.000   0.012   0.002   0.000
  -0.803   0.000   0.012   0.002   0.000
  -0.796   0.000   0.012   0.002   0.000
  -0.789   0.000   0.013   0.002   0.000
  -0.782   0.000   0.013   0.002   0.000
  -0.776   0.000   0.014   0.002   0.000
  -0.769   0.000   0.015   0.003   0.000
  -0.762   0.000   0.015   0.003   0.000
  -0.755   0.000   0.016   0.003   0.000
  -0.748   0.000   0.017   0.003   0.000
  -0.741   0.000   0.018   0.003   0.000
  -0.735   0.000   0.020   0.004   0.000
  -0.728   0.000   0.021   0.004   0.000
  -0.721   0.000   0.023   0.004   0.000
  -0.714   0.000   0.026   0.005   0.000
  -0.707   0.000   0.029   0.005   0.000
  -0.701   0.000   0.032   0.006   0.000
  -0.694   0.000   0.037   0.007   0.000
  -0.687   0.000   0.043   0.008   0.000
  -0.680   0.000   0.050   0.009   0.000
  -0.673   0.000   0.060   0.011   0.000
  -0.667   0.000   0.074   0.013   0.000
  -0.660   0.000   0.093   0.017   0.000
  -0.653   0.000   0.121   0.022   0.000
  -0.646   0.000   0.164   0.030   0.001
  -0.639   0.000   0.234   0.042   0.001
  -0.633   0.000   0.354   0.064   0.001
  -0.626   0.000   0.569   0.103   0.002
  -0.619   0.000   0.920   0.166   0.003
  -0.612   0.000   1.222   0.221   0.004
  -0.605   0.000   1.048   0.189   0.003
  -0.599   0.000   0.669   0.121   0.002
  -0.592   0.000   0.411   0.074   0.001
  -0.585   0.000   0.266   0.048   0.001
  -0.578   0.000   0.183   0.033   0.001
  -0.571   0.000   0.133   0.024   0.000
  -0.565   0.000   0.100   0.018   0.000
  -0.558   0.000   0.079   0.014   0.000
  -0.551   0.000   0.063   0.012   0.000
  -0.544   0.000   0.052   0.010   0.000
  -0.537   0.000   0.044   0.008   0.000
  -0.531   0.000   0.038   0.007   0.000
  -0.524   0.000   0.033   0.006   0.000
  -0.517   0.000   0.029   0.005   0.000
  -0.510   0.000   0.025   0.005   0.000
  -0.503   0.000   0.023   0.004   0.000
  -0.497   0.000   0.021   0.004   0.000
  -0.490   0.000   0.019   0.004   0.000
  -0.483   0.000   0.017   0.003   0.000
  -0.476   0.000   0.016   0.003   0.000
  -0.469   0.000   0.015   0.003   0.000
  -0.463   0.000   0.013   0.003   0.000
  -0.456   0.000   0.013   0.002   0.000
  -0.449   0.000   0.012   0.002   0.000
  -0.442   0.000   0.011   0.002   0.000
  -0.435   0.000   0.010   0.002   0.000
  -0.429   0.000   0.010   0.002   0.000
  -0.422   0.000   0.009   0.002   0.000
  -0.415   0.001   0.009   0.002   0.000
  -0.408   0.001   0.009   0.002   0.000
  -0.401   0.001   0.008   0.002   0.000
  -0.395   0.001   0.008   0.002   0.000
  -0.388   0.001   0.008   0.002   0.000
  -0.381   0.001   0.007   0.002   0.000
  -0.374   0.001   0.007   0.001   0.000
  -0.367   0.001   0.007   0.001   0.000
  -0.361   0.001   0.007   0.001   0.000
  -0.354   0.001   0.006   0.001   0.000
  -0.347   0.001   0.006   0.001   0.000
  -0.340   0.001   0.006   0.001   0.000
  -0.333   0.001   0.006   0.001   0.000
  -0.327   0.001   0.006   0.001   0.000
  -0.320   0.001   0.005   0.001   0.000
  -0.313   0.001   0.005   0.001   0.000
  -0.306   0.001   0.005   0.001   0.000
  -0.299   0.001   0.005   0.001   0.000
  -0.293   0.001   0.005   0.001   0.000
  -0.286   0.001   0.005   0.001   0.000
  -0.279   0.001   0.005   0.001   0.000
  -0.272   0.001   0.005   0.001   0.000
  -0.265   0.001   0.005   0.001   0.000
  -0.259   0.001   0.005   0.001   0.000
  -0.252   0.001   0.004   0.001   0.000
  -0.245   0.001   0.004   0.001   0.000
  -0.238   0.001   0.004   0.001   0.000
  -0.231   0.001   0.004   0.001   0.000
  -0.224   0.001   0.004   0.001   0.000
  -0.218   0.001   0.004   0.001   0.000
  -0.211   0.001   0.004   0.001   0.000
  -0.204   0.001   0.004   0.001   0.000
  -0.197   0.001   0.004   0.001   0.000
  -0.190   0.001   0.004   0.001   0.000
  -0.184   0.001   0.004   0.001   0.000
  -0.177   0.001   0.004   0.001   0.000
  -0.170   0.001   0.004   0.001   0.000
  -0.163   0.001   0.004   0.001   0.000
  -0.156   0.001   0.004   0.001   0.000
  -0.150   0.001   0.004   0.001   0.000
  -0.143   0.001   0.004   0.001   0.000
  -0.136   0.001   0.003   0.001   0.000
  -0.129   0.001   0.003   0.001   0.000
  -0.122   0.001   0.003   0.001   0.000
  -0.116   0.001   0.003   0.001   0.000
  -0.109   0.001   0.003   0.001   0.000
  -0.102   0.001   0.003   0.001   0.000
  -0.095   0.001   0.003   0.001   0.000
  -0.088   0.001   0.003   0.001   0.000
  -0.082   0.001   0.003   0.001   0.000
  -0.075   0.001   0.003   0.001   0.000
  -0.068   0.001   0.003   0.001   0.000
  -0.061   0.001   0.003   0.001   0.000
  -0.054   0.001   0.003   0.001   0.000
  -0.048   0.001   0.003   0.001   0.000
  -0.041   0.001   0.003   0.001   0.000
  -0.034   0.001   0.003   0.001   0.000
  -0.027   0.001   0.003   0.001   0.000
  -0.020   0.001   0.003   0.001   0.000
  -0.014   0.001   0.003   0.001   0.000
  -0.007   0.001   0.003   0.001   0.000
   0.000   0.001   0.003   0.001   0.000
   0.007   0.001   0.003   0.001   0.000
   0.014   0.001   0.003   0.001   0.000
   0.020   0.001   0.003   0.001   0.000
   0.027   0.001   0.003   0.001   0.000
   0.034   0.001   0.003   0.001   0.000
   0.041   0.001   0.003   0.001   0.000
   0.048   0.001   0.003   0.001   0.000
   0.054   0.001   0.003   0.001   0.000
   0.061   0.001   0.003   0.001   0.000
   0.068   0.001   0.003   0.001   0.000
   0.075   0.001   0.003   0.001   0.000
   0.082   0.001   0.003   0.001   0.000
   0.088   0.001   0.003   0.001   0.000
   0.095   0.001   0.003   0.001   0.000
   0.102   0.001   0.003   0.001   0.000
   0.109   0.001   0.003   0.001   0.000
   0.116   0.001   0.003   0.001   0.000
   0.122   0.001   0.003   0.001   0.000
   0.129   0.001   0.003   0.001   0.000
   0.136   0.001   0.003   0.001   0.000
   0.143   0.001   0.003   0.001   0.000
   0.150   0.001   0.003   0.001   0.000
   0.156   0.001   0.003   0.001   0.000
   0.163   0.001   0.003   0.001   0.000
   0.170   0.001   0.003   0.001   0.000
   0.177   0.001   0.003   0.001   0.000
   0.184   0.001   0.003   0.001   0.000
   0.190   0.001   0.003   0.001   0.000
   0.197   0.001   0.003   0.001   0.000
   0.204   0.001   0.003   0.001   0.000
   0.211   0.001   0.003   0.001   0.000
   0.218   0.001   0.003   0.001   0.000
   0.224   0.001   0.003   0.001   0.000
   0.231   0.001   0.003   0.001   0.000
   0.238   0.001   0.003   0.001   0.000
   0.245   0.001   0.003   0.001   0.000
   0.252   0.001   0.003   0.001   0.000
   0.259   0.001   0.003   0.001   0.000
   0.265   0.001   0.003   0.001   0.000
   0.272   0.001   0.003   0.001   0.000
   0.279   0.001   0.003   0.001   0.000
   0.286   0.001   0.003   0.001   0.000
   0.293   0.001   0.003   0.002   0.000
   0.299   0.001   0.003   0.002   0.000
   0.306   0.001   0.003   0.002   0.000
   0.313   0.001   0.003   0.002   0.000
   0.320   0.001   0.003   0.002   0.000
   0.327   0.001   0.003   0.002   0.000
   0.333   0.001   0.003   0.002   0.000
   0.340   0.001   0.003   0.002   0.000
   0.347   0.001   0.003   0.002   0.000
   0.354   0.001   0.003   0.002   0.000
   0.361   0.002   0.003   0.002   0.000
   0.367   0.002   0.003   0.002   0.000
   0.374   0.002   0.003   0.002   0.000
   0.381   0.002   0.003   0.002   0.000
   0.388   0.002   0.003   0.002   0.000
   0.395   0.002   0.003   0.002   0.000
   0.401   0.002   0.003   0.002   0.000
   0.408   0.002   0.003   0.002   0.000
   0.415   0.002   0.003   0.002   0.000
   0.422   0.002   0.003   0.002   0.000
   0.429   0.002   0.003   0.002   0.000
   0.435   0.002   0.003   0.002   0.000
   0.442   0.002   0.003   0.002   0.000
   0.449   0.002   0.003   0.003   0.000
   0.456   0.002   0.003   0.003   0.000
   0.463   0.002   0.003   0.003   0.000
   0.469   0.002   0.003   0.003   0.000
   0.476   0.003   0.003   0.003   0.000
   0.483   0.003   0.003   0.003   0.000
   0.490   0.003   0.004   0.003   0.000
   0.497   0.003   0.004   0.003   0.000
   0.503   0.003   0.004   0.004   0.000
   0.510   0.003   0.004   0.004   0.000
   0.517   0.003   0.004   0.004   0.000
   0.524   0.004   0.004   0.004   0.000
   0.531   0.004   0.004   0.004   0.000
   0.537   0.004   0.004   0.005   0.000
   0.544   0.004   0.005   0.005   0.000
   0.551   0.005   0.005   0.005   0.000
   0.558   0.005   0.005   0.006   0.000
   0.565   0.005   0.005   0.006   0.000
   0.571   0.006   0.006   0.007   0.000
   0.578   0.006   0.006   0.007   0.000
   0.585   0.007   0.006   0.008   0.000
   0.592   0.008   0.007   0.009   0.000
   0.599   0.009   0.007   0.010   0.000
   0.605   0.010   0.008   0.011   0.000
   0.612   0.011   0.009   0.012   0.000
   0.619   0.012   0.010   0.014   0.000
   0.626   0.014   0.011   0.016   0.000
   0.633   0.016   0.013   0.019   0.000
   0.639   0.019   0.015   0.022   0.000
   0.646   0.023   0.017   0.027   0.000
   0.653   0.029   0.021   0.033   0.000
   0.660   0.036   0.026   0.041   0.000
   0.667   0.047   0.033   0.054   0.000
   0.673   0.064   0.044   0.072   0.000
   0.680   0.090   0.062   0.103   0.000
   0.687   0.135   0.092   0.155   0.000
   0.694   0.216   0.146   0.247   0.000
   0.701   0.352   0.237   0.402   0.001
   0.707   0.491   0.330   0.560   0.001
   0.714   0.449   0.302   0.513   0.001
   0.721   0.294   0.198   0.335   0.001
   0.728   0.180   0.122   0.205   0.000
   0.735   0.115   0.079   0.131   0.000
   0.741   0.079   0.054   0.090   0.000
   0.748   0.057   0.040   0.064   0.000
   0.755   0.043   0.030   0.049   0.000
   0.762   0.033   0.024   0.038   0.000
   0.769   0.027   0.020   0.030   0.000
   0.776   0.022   0.017   0.025   0.000
   0.782   0.019   0.014   0.021   0.000
   0.789   0.016   0.012   0.018   0.000
   0.796   0.014   0.011   0.016   0.000
   0.803   0.012   0.010   0.014   0.000
   0.810   0.011   0.009   0.012   0.000
   0.816   0.010   0.008   0.011   0.000
   0.823   0.009   0.008   0.010   0.000
   0.830   0.008   0.007   0.009   0.000
   0.837   0.008   0.007   0.008   0.000
   0.844   0.007   0.007   0.008   0.000
   0.850   0.007   0.006   0.007   0.000
   0.857   0.006   0.006   0.007   0.000
   0.864   0.006   0.006   0.007   0.000
   0.871   0.006   0.006   0.006   0.000
   0.878   0.005   0.006   0.006   0.000
   0.884   0.005   0.006   0.006   0.000