  -5.442   0.001   0.001   0.001   0.000
  -5.430   0.001   0.001   0.001   0.000
  -5.418   0.001   0.001   0.001   0.000
  -5.406   0.001   0.001   0.001   0.000
  -5.394   0.001   0.001   0.001   0.000
  -5.382   0.001   0.001   0.001   0.000
  -5.370   0.001   0.001   0.001   0.000
  -5.357   0.001   0.001   0.001   0.000
  -5.345   0.001   0.001   0.001   0.000
  -5.333   0.001   0.001   0.001   0.000
  -5.321   0.001   0.001   0.001   0.000
  -5.309   0.001   0.001   0.001   0.000
  -5.297   0.001   0.001   0.001   0.000
  -5.285   0.001   0.001   0.001   0.000
  -5.273   0.001   0.001   0.001   0.000
  -5.261   0.001   0.001   0.001   0.000
  -5.249   0.001   0.001   0.001   0.000
  -5.237   0.001   0.001   0.001   0.000
  -5.224   0.001   0.001   0.001   0.000
  -5.212   0.001   0.001   0.001   0.000
  -5.200   0.001   0.001   0.001   0.000
  -5.188   0.001   0.001   0.001   0.000
  -5.176   0.001   0.001   0.001   0.000
  -5.164   0.001   0.001   0.001   0.000
  -5.152   0.001   0.001   0.001   0.000
  -5.140   0.001   0.001   0.001   0.000
  -5.128   0.001   0.001   0.001   0.000
  -5.116   0.001   0.001   0.001   0.000
  -5.104   0.001   0.001   0.001   0.000
  -5.091   0.001   0.001   0.001   0.000
  -5.079   0.001   0.001   0.001   0.000
  -5.067   0.001   0.001   0.001   0.000
  -5.055   0.001   0.001   0.001   0.000
  -5.043   0.001   0.001   0.001   0.000
  -5.031   0.001   0.001   0.001   0.000
  -5.019   0.001   0.001   0.001   0.000
  -5.007   0.001   0.001   0.001   0.000
  -4.995   0.001   0.001   0.001   0.000
  -4.983   0.001   0.001   0.001   0.000
  -4.970   0.001   0.001   0.001   0.000
  -4.958   0.001   0.001   0.001   0.000
  -4.946   0.001   0.001   0.001   0.000
  -4.934   0.001   0.001   0.001   0.000
  -4.922   0.001   0.001   0.001   0.000
  -4.910   0.001   0.001   0.001   0.000
  -4.898   0.001   0.001   0.001   0.000
  -4.886   0.001   0.001   0.001   0.000
  -4.874   0.001   0.001   0.001   0.000
  -4.862   0.001   0.001   0.001   0.000
  -4.850   0.001   0.001   0.001   0.000
  -4.837   0.001   0.001   0.001   0.000
  -4.825   0.001   0.001   0.001   0.000
  -4.813   0.001   0.001   0.001   0.000
  -4.801   0.001   0.001   0.001   0.000
  -4.789   0.001   0.001   0.001   0.000
  -4.777   0.001   0.001   0.001   0.000
  -4.765   0.001   0.001   0.001   0.000
  -4.753   0.001   0.001   0.001   0.000
  -4.741   0.001   0.001   0.001   0.000
  -4.729   0.001   0.001   0.001   0.000
  -4.717   0.001   0.001   0.001   0.000
  -4.704   0.001   0.001   0.001   0.000
  -4.692   0.001   0.001   0.001   0.000
  -4.680   0.001   0.001   0.001   0.000
  -4.668   0.001   0.001   0.001   0.000
  -4.656   0.001   0.001   0.001   0.000
  -4.644   0.001   0.001   0.001   0.000
  -4.632   0.001   0.001   0.001   0.000
  -4.620   0.001   0.001   0.001   0.000
  -4.608   0.001   0.001   0.001   0.000
  -4.596   0.001   0.001   0.001   0.000
  -4.583   0.001   0.001   0.001   0.000
  -4.571   0.001   0.001   0.001   0.000
  -4.559   0.001   0.001   0.001   0.000
  -4.547   0.001   0.001   0.001   0.000
  -4.535   0.001   0.001   0.001   0.000
  -4.523   0.001   0.001   0.001   0.000
  -4.511   0.001   0.001   0.001   0.000
  -4.499   0.001   0.001   0.001   0.000
  -4.487   0.001   0.001   0.001   0.000
  -4.475   0.002   0.001   0.001   0.000
  -4.463   0.002   0.001   0.001   0.000
  -4.450   0.002   0.001   0.001   0.000
  -4.438   0.002   0.001   0.001   0.000
  -4.426   0.002   0.001   0.001   0.000
  -4.414   0.002   0.001   0.001   0.000
  -4.402   0.002   0.001   0.001   0.000
  -4.390   0.002   0.001   0.001   0.000
  -4.378   0.002   0.001   0.001   0.000
  -4.366   0.002   0.001   0.001   0.000
  -4.354   0.002   0.001   0.001   0.000
  -4.342   0.002   0.001   0.001   0.000
  -4.330   0.002   0.001   0.001   0.000
  -4.317   0.002   0.001   0.001   0.000
  -4.305   0.002   0.001   0.001   0.000
  -4.293   0.002   0.001   0.001   0.000
  -4.281   0.002   0.001   0.001   0.000
  -4.269   0.002   0.001   0.001   0.000
  -4.257   0.002   0.001   0.001   0.000
  -4.245   0.002   0.001   0.001   0.000
  -4.233   0.002   0.001   0.001   0.000
  -4.221   0.002   0.001   0.001   0.000
  -4.209   0.002   0.001   0.001   0.000
  -4.196   0.002   0.002   0.001   0.000
  -4.184   0.002   0.002   0.001   0.000
  -4.172   0.002   0.002   0.001   0.000
  -4.160   0.002   0.002   0.001   0.000
  -4.148   0.002   0.002   0.001   0.000
  -4.136   0.002   0.002   0.001   0.000
  -4.124   0.002   0.002   0.001   0.000
  -4.112   0.002   0.002   0.001   0.000
  -4.100   0.002   0.002   0.001   0.000
  -4.088   0.002   0.002   0.001   0.000
  -4.076   0.002   0.002   0.001   0.000
  -4.063   0.002   0.002   0.001   0.000
  -4.051   0.002   0.002   0.001   0.000
  -4.039   0.002   0.002   0.001   0.000
  -4.027   0.002   0.002   0.001   0.000
  -4.015   0.002   0.002   0.001   0.000
  -4.003   0.002   0.002   0.001   0.000
  -3.991   0.002   0.002   0.001   0.000
  -3.979   0.002   0.002   0.001   0.000
  -3.967   0.002   0.002   0.001   0.000
  -3.955   0.002   0.002   0.001   0.000
  -3.943   0.002   0.002   0.001   0.000
  -3.930   0.002   0.002   0.001   0.000
  -3.918   0.002   0.002   0.001   0.000
  -3.906   0.002   0.002   0.001   0.000
  -3.894   0.002   0.002   0.001   0.000
  -3.882   0.002   0.002   0.001   0.000
  -3.870   0.002   0.002   0.001   0.000
  -3.858   0.003   0.002   0.001   0.000
  -3.846   0.003   0.002   0.001   0.000
  -3.834   0.003   0.002   0.001   0.000
  -3.822   0.003   0.002   0.001   0.000
  -3.809   0.003   0.002   0.001   0.000
  -3.797   0.003   0.002   0.001   0.000
  -3.785   0.003   0.002   0.001   0.000
  -3.773   0.003   0.002   0.001   0.000
  -3.761   0.003   0.002   0.001   0.000
  -3.749   0.003   0.002   0.001   0.000
  -3.737   0.003   0.002   0.001   0.000
  -3.725   0.003   0.002   0.001   0.000
  -3.713   0.003   0.002   0.001   0.000
  -3.701   0.003   0.002   0.001   0.000
  -3.689   0.003   0.002   0.001   0.000
  -3.676   0.003   0.002   0.001   0.000
  -3.664   0.003   0.002   0.001   0.000
  -3.652   0.003   0.002   0.001   0.000
  -3.640   0.003   0.002   0.001   0.000
  -3.628   0.003   0.002   0.001   0.000
  -3.616   0.003   0.002   0.001   0.000
  -3.604   0.003   0.002   0.001   0.000
  -3.592   0.003   0.002   0.001   0.000
  -3.580   0.004   0.002   0.001   0.000
  -3.568   0.004   0.002   0.001   0.000
  -3.556   0.004   0.002   0.001   0.000
  -3.543   0.004   0.002   0.001   0.000
  -3.531   0.004   0.002   0.001   0.000
  -3.519   0.004   0.002   0.001   0.000
  -3.507   0.004   0.002   0.001   0.000
  -3.495   0.004   0.002   0.001   0.000
  -3.483   0.004   0.002   0.001   0.000
  -3.471   0.004   0.002   0.001   0.000
  -3.459   0.004   0.002   0.001   0.000
  -3.447   0.004   0.002   0.001   0.000
  -3.435   0.005   0.002   0.001   0.000
  -3.423   0.005   0.002   0.001   0.000
  -3.410   0.005   0.002   0.001   0.000
  -3.398   0.005   0.002   0.001   0.000
  -3.386   0.005   0.002   0.001   0.000
  -3.374   0.005   0.002   0.001   0.000
  -3.362   0.005   0.002   0.001   0.000
  -3.350   0.005   0.002   0.001   0.000
  -3.338   0.006   0.002   0.001   0.000
  -3.326   0.006   0.002   0.001   0.000
  -3.314   0.006   0.002   0.001   0.000
  -3.302   0.006   0.002   0.001   0.000
  -3.289   0.006   0.002   0.001   0.000
  -3.277   0.007   0.002   0.001   0.000
  -3.265   0.007   0.002   0.001   0.000
  -3.253   0.007   0.002   0.001   0.000
  -3.241   0.007   0.002   0.001   0.000
  -3.229   0.008   0.003   0.001   0.000
  -3.217   0.008   0.003   0.001   0.000
  -3.205   0.009   0.003   0.001   0.000
  -3.193   0.009   0.003   0.001   0.000
  -3.181   0.010   0.003   0.001   0.000
  -3.169   0.010   0.003   0.001   0.000
  -3.156   0.011   0.003   0.001   0.000
  -3.144   0.012   0.003   0.001   0.000
  -3.132   0.013   0.003   0.001   0.000
  -3.120   0.014   0.003   0.001   0.000
  -3.108   0.016   0.003   0.001   0.000
  -3.096   0.018   0.003   0.001   0.000
  -3.084   0.020   0.003   0.001   0.000
  -3.072   0.023   0.003   0.001   0.000
  -3.060   0.026   0.003   0.001   0.000
  -3.048   0.029   0.003   0.001   0.000
  -3.036   0.033   0.003   0.001   0.000
  -3.023   0.035   0.003   0.001   0.000
  -3.011   0.037   0.003   0.001   0.000
  -2.999   0.037   0.003   0.001   0.000
  -2.987   0.035   0.003   0.001   0.000
  -2.975   0.033   0.003   0.001   0.000
  -2.963   0.030   0.003   0.001   0.000
  -2.951   0.027   0.003   0.001   0.000
  -2.939   0.025   0.004   0.001   0.000
  -2.927   0.024   0.004   0.001   0.000
  -2.915   0.022   0.004   0.001   0.000
  -2.902   0.022   0.004   0.001   0.000
  -2.890   0.021   0.004   0.001   0.000
  -2.878   0.021   0.004   0.001   0.000
  -2.866   0.021   0.004   0.001   0.000
  -2.854   0.021   0.004   0.001   0.000
  -2.842   0.022   0.004   0.001   0.000
  -2.830   0.022   0.004   0.001   0.000
  -2.818   0.023   0.005   0.001   0.000
  -2.806   0.024   0.005   0.001   0.000
  -2.794   0.025   0.005   0.001   0.000
  -2.782   0.027   0.005   0.001   0.000
  -2.769   0.029   0.005   0.001   0.000
  -2.757   0.031   0.006   0.001   0.000
  -2.745   0.033   0.006   0.001   0.000
  -2.733   0.036   0.006   0.001   0.000
  -2.721   0.039   0.007   0.001   0.000
  -2.709   0.043   0.007   0.001   0.000
  -2.697   0.048   0.008   0.001   0.000
  -2.685   0.054   0.008   0.001   0.000
  -2.673   0.060   0.009   0.001   0.000
  -2.661   0.068   0.010   0.001   0.000
  -2.649   0.078   0.011   0.001   0.000
  -2.636   0.090   0.012   0.001   0.000
  -2.624   0.105   0.014   0.001   0.000
  -2.612   0.123   0.016   0.001   0.000
  -2.600   0.146   0.018   0.001   0.000
  -2.588   0.173   0.021   0.001   0.000
  -2.576   0.204   0.024   0.001   0.000
  -2.564   0.239   0.028   0.002   0.000
  -2.552   0.272   0.031   0.002   0.000
  -2.540   0.299   0.034   0.002   0.000
  -2.528   0.310   0.035   0.002   0.000
  -2.515   0.303   0.035   0.002   0.000
  -2.503   0.281   0.032   0.002   0.000
  -2.491   0.248   0.029   0.002   0.000
  -2.479   0.214   0.026   0.002   0.000
  -2.467   0.182   0.022   0.001   0.000
  -2.455   0.154   0.020   0.001   0.000
  -2.443   0.131   0.017   0.001   0.000
  -2.431   0.113   0.016   0.001   0.000
  -2.419   0.098   0.014   0.001   0.000
  -2.407   0.086   0.013   0.001   0.000
  -2.395   0.076   0.012   0.001   0.000
  -2.382   0.068   0.011   0.001   0.000
  -2.370   0.062   0.011   0.001   0.000
  -2.358   0.057   0.010   0.001   0.000
  -2.346   0.053   0.010   0.001   0.000
  -2.334   0.049   0.010   0.001   0.000
  -2.322   0.047   0.010   0.001   0.000
  -2.310   0.045   0.010   0.001   0.000
  -2.298   0.044   0.010   0.001   0.000
  -2.286   0.043   0.010   0.001   0.000
  -2.274   0.042   0.010   0.001   0.000
  -2.262   0.042   0.010   0.001   0.000
  -2.249   0.043   0.011   0.001   0.000
  -2.237   0.044   0.011   0.001   0.000
  -2.225   0.046   0.012   0.001   0.000
  -2.213   0.048   0.012   0.002   0.000
  -2.201   0.051   0.013   0.002   0.000
  -2.189   0.055   0.014   0.002   0.000
  -2.177   0.060   0.015   0.002   0.000
  -2.165   0.066   0.017   0.002   0.000
  -2.153   0.075   0.019   0.002   0.000
  -2.141   0.085   0.021   0.002   0.000
  -2.128   0.097   0.024   0.002   0.000
  -2.116   0.111   0.027   0.002   0.000
  -2.104   0.127   0.031   0.002   0.000
  -2.092   0.142   0.034   0.003   0.000
  -2.080   0.153   0.037   0.003   0.000
  -2.068   0.158   0.038   0.003   0.000
  -2.056   0.154   0.037   0.003   0.000
  -2.044   0.143   0.035   0.003   0.000
  -2.032   0.129   0.032   0.003   0.000
  -2.020   0.114   0.029   0.002   0.000
  -2.008   0.100   0.026   0.002   0.000
  -1.995   0.089   0.024   0.002   0.000
  -1.983   0.080   0.022   0.002   0.000
  -1.971   0.072   0.021   0.002   0.000
  -1.959   0.067   0.020   0.002   0.000
  -1.947   0.062   0.019   0.002   0.000
  -1.935   0.060   0.019   0.002   0.000
  -1.923   0.058   0.019   0.002   0.000
  -1.911   0.056   0.019   0.002   0.000
  -1.899   0.056   0.019   0.002   0.000
  -1.887   0.056   0.020   0.002   0.000
  -1.875   0.058   0.020   0.002   0.000
  -1.862   0.059   0.021   0.002   0.000
  -1.850   0.062   0.022   0.002   0.000
  -1.838   0.065   0.024   0.002   0.000
  -1.826   0.069   0.025   0.003   0.000
  -1.814   0.074   0.027   0.003   0.000
  -1.802   0.080   0.029   0.003   0.000
  -1.790   0.088   0.032   0.003   0.000
  -1.778   0.097   0.035   0.003   0.000
  -1.766   0.108   0.040   0.004   0.000
  -1.754   0.122   0.044   0.004   0.000
  -1.741   0.139   0.050   0.004   0.000
  -1.729   0.160   0.058   0.005   0.000
  -1.717   0.186   0.067   0.005   0.000
  -1.705   0.219   0.078   0.006   0.000
  -1.693   0.258   0.092   0.007   0.001
  -1.681   0.305   0.108   0.008   0.001
  -1.669   0.358   0.127   0.009   0.001
  -1.657   0.414   0.146   0.010   0.001
  -1.645   0.464   0.164   0.012   0.001
  -1.633   0.496   0.175   0.012   0.001
  -1.621   0.500   0.176   0.012   0.001
  -1.608   0.475   0.168   0.012   0.001
  -1.596   0.430   0.152   0.011   0.001
  -1.584   0.375   0.134   0.010   0.001
  -1.572   0.321   0.115   0.009   0.001
  -1.560   0.273   0.099   0.007   0.001
  -1.548   0.232   0.085   0.007   0.001
  -1.536   0.199   0.073   0.006   0.000
  -1.524   0.172   0.064   0.005   0.000
  -1.512   0.150   0.057   0.005   0.000
  -1.500   0.133   0.051   0.005   0.000
  -1.488   0.119   0.047   0.004   0.000
  -1.475   0.108   0.043   0.004   0.000
  -1.463   0.100   0.041   0.004   0.000
  -1.451   0.093   0.039   0.004   0.000
  -1.439   0.088   0.038   0.004   0.000
  -1.427   0.084   0.037   0.004   0.000
  -1.415   0.082   0.037   0.004   0.000
  -1.403   0.081   0.037   0.004   0.000
  -1.391   0.082   0.038   0.004   0.000
  -1.379   0.083   0.039   0.004   0.000
  -1.367   0.086   0.041   0.004   0.000
  -1.354   0.091   0.044   0.005   0.001
  -1.342   0.097   0.047   0.005   0.001
  -1.330   0.106   0.052   0.005   0.001
  -1.318   0.117   0.058   0.006   0.001
  -1.306   0.132   0.066   0.006   0.001
  -1.294   0.150   0.075   0.007   0.001
  -1.282   0.172   0.086   0.008   0.001
  -1.270   0.196   0.098   0.009   0.001
  -1.258   0.219   0.110   0.010   0.001
  -1.246   0.237   0.119   0.011   0.001
  -1.234   0.244   0.123   0.011   0.001
  -1.221   0.238   0.120   0.011   0.001
  -1.209   0.221   0.112   0.010   0.001
  -1.197   0.198   0.101   0.010   0.001
  -1.185   0.173   0.089   0.009   0.001
  -1.173   0.150   0.078   0.008   0.001
  -1.161   0.130   0.068   0.007   0.001
  -1.149   0.114   0.060   0.006   0.001
  -1.137   0.101   0.054   0.006   0.001
  -1.125   0.091   0.049   0.006   0.001
  -1.113   0.083   0.046   0.005   0.001
  -1.101   0.076   0.043   0.005   0.001
  -1.088   0.071   0.041   0.005   0.001
  -1.076   0.068   0.039   0.005   0.001
  -1.064   0.065   0.038   0.005   0.001
  -1.052   0.063   0.038   0.005   0.001
  -1.040   0.062   0.038   0.005   0.001
  -1.028   0.062   0.038   0.005   0.001
  -1.016   0.063   0.039   0.005   0.001
  -1.004   0.064   0.040   0.005   0.001
  -0.992   0.066   0.042   0.006   0.001
  -0.980   0.069   0.044   0.006   0.001
  -0.967   0.073   0.047   0.006   0.001
  -0.955   0.078   0.051   0.007   0.001
  -0.943   0.084   0.055   0.007   0.001
  -0.931   0.092   0.060   0.008   0.001
  -0.919   0.102   0.067   0.008   0.001
  -0.907   0.114   0.075   0.009   0.001
  -0.895   0.129   0.085   0.011   0.001
  -0.883   0.148   0.098   0.012   0.001
  -0.871   0.171   0.113   0.014   0.001
  -0.859   0.200   0.133   0.016   0.001
  -0.847   0.235   0.155   0.019   0.001
  -0.834   0.276   0.182   0.022   0.001
  -0.822   0.320   0.211   0.025   0.001
  -0.810   0.361   0.238   0.028   0.002
  -0.798   0.391   0.258   0.030   0.002
  -0.786   0.401   0.264   0.031   0.002
  -0.774   0.387   0.256   0.030   0.002
  -0.762   0.355   0.235   0.028   0.002
  -0.750   0.313   0.207   0.024   0.001
  -0.738   0.269   0.179   0.021   0.001
  -0.726   0.229   0.153   0.018   0.001
  -0.714   0.195   0.131   0.016   0.001
  -0.701   0.167   0.113   0.014   0.001
  -0.689   0.144   0.099   0.012   0.001
  -0.677   0.125   0.087   0.011   0.001
  -0.665   0.110   0.077   0.010   0.001
  -0.653   0.098   0.070   0.009   0.001
  -0.641   0.089   0.064   0.009   0.001
  -0.629   0.081   0.059   0.008   0.001
  -0.617   0.075   0.056   0.008   0.001
  -0.605   0.070   0.053   0.007   0.001
  -0.593   0.066   0.051   0.007   0.001
  -0.580   0.063   0.049   0.007   0.001
  -0.568   0.061   0.048   0.007   0.001
  -0.556   0.059   0.048   0.007   0.001
  -0.544   0.059   0.048   0.007   0.001
  -0.532   0.059   0.049   0.007   0.001
  -0.520   0.060   0.051   0.008   0.001
  -0.508   0.062   0.053   0.008   0.001
  -0.496   0.065   0.056   0.008   0.001
  -0.484   0.068   0.060   0.009   0.001
  -0.472   0.074   0.065   0.010   0.001
  -0.460   0.081   0.072   0.010   0.001
  -0.447   0.090   0.080   0.012   0.001
  -0.435   0.100   0.089   0.013   0.001
  -0.423   0.112   0.101   0.014   0.001
  -0.411   0.125   0.112   0.016   0.001
  -0.399   0.135   0.122   0.017   0.001
  -0.387   0.141   0.127   0.018   0.001
  -0.375   0.141   0.127   0.018   0.001
  -0.363   0.134   0.122   0.017   0.001
  -0.351   0.124   0.114   0.016   0.001
  -0.339   0.112   0.104   0.015   0.001
  -0.327   0.100   0.094   0.014   0.001
  -0.314   0.091   0.086   0.013   0.001
  -0.302   0.083   0.080   0.012   0.001
  -0.290   0.077   0.076   0.011   0.001
  -0.278   0.072   0.073   0.011   0.001
  -0.266   0.069   0.071   0.011   0.001
  -0.254   0.068   0.071   0.011   0.001
  -0.242   0.067   0.071   0.011   0.001
  -0.230   0.067   0.072   0.011   0.001
  -0.218   0.068   0.075   0.011   0.001
  -0.206   0.071   0.078   0.012   0.001
  -0.193   0.074   0.082   0.013   0.001
  -0.181   0.078   0.088   0.013   0.001
  -0.169   0.083   0.095   0.014   0.001
  -0.157   0.089   0.103   0.016   0.001
  -0.145   0.097   0.113   0.017   0.001
  -0.133   0.107   0.125   0.019   0.002
  -0.121   0.120   0.141   0.021   0.002
  -0.109   0.135   0.159   0.023   0.002
  -0.097   0.153   0.182   0.027   0.002
  -0.085   0.177   0.209   0.030   0.002
  -0.073   0.205   0.244   0.035   0.003
  -0.060   0.241   0.287   0.041   0.003
  -0.048   0.284   0.339   0.049   0.004
  -0.036   0.336   0.401   0.057   0.004
  -0.024   0.396   0.473   0.067   0.005
  -0.012   0.459   0.549   0.078   0.006
   0.000   0.517   0.618   0.088   0.006
   0.012   0.556   0.665   0.094   0.007
   0.024   0.565   0.675   0.096   0.007
   0.036   0.539   0.646   0.092   0.006
   0.048   0.489   0.586   0.083   0.006
   0.060   0.427   0.512   0.073   0.005
   0.073   0.364   0.437   0.062   0.005
   0.085   0.308   0.370   0.053   0.004
   0.097   0.259   0.313   0.045   0.003
   0.109   0.220   0.265   0.039   0.003
   0.121   0.187   0.227   0.033   0.003
   0.133   0.161   0.196   0.029   0.002
   0.145   0.140   0.171   0.025   0.002
   0.157   0.123   0.151   0.023   0.002
   0.169   0.109   0.134   0.020   0.002
   0.181   0.097   0.121   0.018   0.002
   0.193   0.087   0.109   0.017   0.002
   0.206   0.079   0.100   0.016   0.001
   0.218   0.073   0.093   0.015   0.001
   0.230   0.067   0.086   0.014   0.001
   0.242   0.062   0.081   0.013   0.001
   0.254   0.058   0.077   0.013   0.001
   0.266   0.055   0.074   0.012   0.001
   0.278   0.053   0.071   0.012   0.001
   0.290   0.050   0.069   0.012   0.001
   0.302   0.049   0.068   0.012   0.001
   0.314   0.048   0.068   0.012   0.001
   0.327   0.047   0.068   0.012   0.001
   0.339   0.047   0.069   0.012   0.001
   0.351   0.048   0.071   0.012   0.001
   0.363   0.050   0.074   0.013   0.001
   0.375   0.052   0.078   0.014   0.001
   0.387   0.055   0.083   0.015   0.001
   0.399   0.059   0.090   0.016   0.002
   0.411   0.064   0.098   0.018   0.002
   0.423   0.070   0.108   0.019   0.002
   0.435   0.077   0.118   0.021   0.002
   0.447   0.083   0.129   0.023   0.002
   0.460   0.087   0.137   0.024   0.002
   0.472   0.088   0.141   0.025   0.002
   0.484   0.085   0.140   0.024   0.002
   0.496   0.079   0.137   0.023   0.002
   0.508   0.072   0.133   0.021   0.002
   0.520   0.064   0.130   0.019   0.002
   0.532   0.058   0.130   0.017   0.002
   0.544   0.052   0.132   0.016   0.002
   0.556   0.048   0.138   0.015   0.003
   0.568   0.045   0.148   0.014   0.003
   0.580   0.042   0.161   0.014   0.003
   0.593   0.040   0.177   0.014   0.003
   0.605   0.039   0.193   0.014   0.004
   0.617   0.038   0.206   0.014   0.004
   0.629   0.038   0.213   0.014   0.004
   0.641   0.038   0.211   0.014   0.004
   0.653   0.038   0.201   0.015   0.004
   0.665   0.039   0.188   0.015   0.004
   0.677   0.041   0.174   0.016   0.003
   0.689   0.043   0.162   0.017   0.003
   0.701   0.045   0.154   0.018   0.003
   0.714   0.048   0.149   0.019   0.003
   0.726   0.052   0.147   0.021   0.003
   0.738   0.057   0.149   0.023   0.003
   0.750   0.063   0.155   0.026   0.003
   0.762   0.071   0.165   0.029   0.003
   0.774   0.080   0.180   0.033   0.003
   0.786   0.092   0.199   0.038   0.003
   0.798   0.106   0.224   0.044   0.004
   0.810   0.124   0.256   0.051   0.004
   0.822   0.145   0.294   0.060   0.005
   0.834   0.167   0.336   0.069   0.005
   0.847   0.190   0.378   0.078   0.006
   0.859   0.207   0.412   0.086   0.006
   0.871   0.216   0.430   0.089   0.006
   0.883   0.212   0.425   0.088   0.006
   0.895   0.198   0.402   0.083   0.006
   0.907   0.178   0.368   0.075   0.006
   0.919   0.156   0.333   0.067   0.005
   0.931   0.135   0.301   0.060   0.005
   0.943   0.118   0.277   0.054   0.004
   0.955   0.104   0.262   0.049   0.004
   0.967   0.093   0.254   0.046   0.004
   0.980   0.085   0.255   0.044   0.004
   0.992   0.079   0.264   0.044   0.004
   1.004   0.075   0.281   0.044   0.004
   1.016   0.073   0.302   0.046   0.005
   1.028   0.073   0.325   0.048   0.005
   1.040   0.074   0.344   0.050   0.005
   1.052   0.077   0.350   0.052   0.005
   1.064   0.082   0.341   0.054   0.005
   1.076   0.090   0.316   0.055   0.005
   1.088   0.100   0.283   0.056   0.005
   1.101   0.112   0.248   0.057   0.004
   1.113   0.126   0.215   0.060   0.004
   1.125   0.139   0.187   0.063   0.003
   1.137   0.150   0.163   0.065   0.003
   1.149   0.155   0.144   0.065   0.003
   1.161   0.152   0.129   0.063   0.002
   1.173   0.141   0.116   0.059   0.002
   1.185   0.127   0.106   0.053   0.002
   1.197   0.111   0.098   0.047   0.002
   1.209   0.096   0.092   0.042   0.002
   1.221   0.083   0.088   0.037   0.002
   1.234   0.072   0.084   0.034   0.002
   1.246   0.064   0.082   0.031   0.002
   1.258   0.057   0.080   0.029   0.002
   1.270   0.051   0.080   0.027   0.002
   1.282   0.046   0.081   0.026   0.002
   1.294   0.043   0.083   0.025   0.002
   1.306   0.040   0.085   0.025   0.002
   1.318   0.037   0.090   0.025   0.002
   1.330   0.035   0.095   0.026   0.002
   1.342   0.034   0.103   0.026   0.002
   1.354   0.033   0.112   0.028   0.002
   1.367   0.032   0.125   0.030   0.002
   1.379   0.031   0.140   0.032   0.002
   1.391   0.031   0.160   0.035   0.003
   1.403   0.031   0.183   0.039   0.003
   1.415   0.031   0.211   0.044   0.003
   1.427   0.032   0.241   0.049   0.004
   1.439   0.032   0.269   0.054   0.004
   1.451   0.033   0.290   0.057   0.004
   1.463   0.034   0.298   0.059   0.004
   1.475   0.036   0.289   0.058   0.004
   1.488   0.038   0.267   0.056   0.004
   1.500   0.040   0.239   0.052   0.004
   1.512   0.043   0.209   0.049   0.004
   1.524   0.047   0.183   0.046   0.003
   1.536   0.051   0.160   0.044   0.003
   1.548   0.057   0.142   0.043   0.003
   1.560   0.063   0.128   0.043   0.003
   1.572   0.071   0.117   0.044   0.003
   1.584   0.081   0.109   0.046   0.003
   1.596   0.094   0.104   0.049   0.003
   1.608   0.109   0.100   0.054   0.003
   1.621   0.127   0.099   0.060   0.004
   1.633   0.150   0.100   0.068   0.004
   1.645   0.175   0.102   0.077   0.004
   1.657   0.201   0.106   0.086   0.005
   1.669   0.224   0.109   0.095   0.005
   1.681   0.238   0.112   0.100   0.006
   1.693   0.239   0.113   0.101   0.006
   1.705   0.226   0.112   0.097   0.005
   1.717   0.205   0.110   0.090   0.005
   1.729   0.179   0.108   0.082   0.005
   1.741   0.155   0.107   0.074   0.004
   1.754   0.133   0.108   0.067   0.004
   1.766   0.114   0.111   0.063   0.004
   1.778   0.099   0.117   0.059   0.004
   1.790   0.087   0.125   0.058   0.004
   1.802   0.078   0.136   0.058   0.004
   1.814   0.071   0.150   0.059   0.004
   1.826   0.065   0.169   0.062   0.004
   1.838   0.061   0.193   0.067   0.004
   1.850   0.058   0.222   0.073   0.004
   1.862   0.056   0.256   0.081   0.005
   1.875   0.055   0.295   0.090   0.005
   1.887   0.055   0.332   0.099   0.006
   1.899   0.056   0.362   0.107   0.006
   1.911   0.058   0.376   0.112   0.007
   1.923   0.062   0.372   0.112   0.007
   1.935   0.066   0.350   0.108   0.006
   1.947   0.073   0.320   0.103   0.006
   1.959   0.081   0.289   0.099   0.006
   1.971   0.091   0.262   0.096   0.006
   1.983   0.104   0.242   0.095   0.006
   1.995   0.120   0.228   0.097   0.006
   2.008   0.136   0.220   0.101   0.006
   2.020   0.152   0.215   0.106   0.007
   2.032   0.164   0.211   0.109   0.007
   2.044   0.169   0.203   0.109   0.007
   2.056   0.164   0.191   0.104   0.007
   2.068   0.151   0.176   0.096   0.006
   2.080   0.134   0.158   0.086   0.006
   2.092   0.116   0.142   0.076   0.005
   2.104   0.100   0.127   0.067   0.005
   2.116   0.086   0.114   0.060   0.004
   2.128   0.074   0.104   0.053   0.004
   2.141   0.065   0.096   0.048   0.003
   2.153   0.057   0.090   0.044   0.003
   2.165   0.051   0.086   0.041   0.003
   2.177   0.046   0.082   0.039   0.003
   2.189   0.042   0.080   0.038   0.003
   2.201   0.038   0.079   0.037   0.003
   2.213   0.036   0.079   0.036   0.003
   2.225   0.033   0.081   0.036   0.003
   2.237   0.031   0.083   0.037   0.003
   2.249   0.030   0.087   0.038   0.003
   2.262   0.029   0.091   0.039   0.003
   2.274   0.028   0.098   0.042   0.003
   2.286   0.027   0.107   0.045   0.003
   2.298   0.026   0.118   0.048   0.003
   2.310   0.026   0.132   0.053   0.004
   2.322   0.025   0.149   0.060   0.004
   2.334   0.025   0.171   0.067   0.004
   2.346   0.025   0.195   0.076   0.005
   2.358   0.025   0.221   0.085   0.005
   2.370   0.025   0.244   0.094   0.006
   2.382   0.025   0.260   0.100   0.006
   2.395   0.026   0.264   0.101   0.006
   2.407   0.026   0.255   0.098   0.006
   2.419   0.027   0.235   0.092   0.006
   2.431   0.028   0.211   0.084   0.005
   2.443   0.029   0.188   0.076   0.005
   2.455   0.030   0.167   0.069   0.005
   2.467   0.031   0.149   0.063   0.005
   2.479   0.033   0.136   0.059   0.004
   2.491   0.034   0.126   0.056   0.004
   2.503   0.036   0.118   0.054   0.004
   2.515   0.039   0.113   0.053   0.004
   2.528   0.041   0.111   0.053   0.004
   2.540   0.044   0.110   0.054   0.005
   2.552   0.048   0.111   0.056   0.005
   2.564   0.052   0.114   0.059   0.005
   2.576   0.057   0.119   0.062   0.005
   2.588   0.063   0.125   0.067   0.006
   2.600   0.070   0.134   0.072   0.006
   2.612   0.079   0.146   0.080   0.007
   2.624   0.089   0.161   0.089   0.008
   2.636   0.102   0.179   0.100   0.009
   2.649   0.117   0.203   0.114   0.010
   2.661   0.136   0.232   0.131   0.011
   2.673   0.160   0.269   0.153   0.013
   2.685   0.189   0.314   0.179   0.016
   2.697   0.223   0.369   0.211   0.018
   2.709   0.263   0.432   0.247   0.021
   2.721   0.305   0.500   0.287   0.025
   2.733   0.345   0.563   0.324   0.028
   2.745   0.374   0.609   0.351   0.030
   2.757   0.384   0.624   0.359   0.031
   2.769   0.371   0.602   0.347   0.030
   2.782   0.340   0.551   0.318   0.027
   2.794   0.300   0.486   0.280   0.024
   2.806   0.259   0.420   0.242   0.021
   2.818   0.222   0.359   0.207   0.018
   2.830   0.191   0.307   0.178   0.016
   2.842   0.166   0.265   0.153   0.014
   2.854   0.146   0.231   0.134   0.012
   2.866   0.130   0.205   0.119   0.011
   2.878   0.118   0.184   0.107   0.010
   2.890   0.109   0.168   0.098   0.010
   2.902   0.103   0.156   0.092   0.009
   2.915   0.100   0.148   0.088   0.009
   2.927   0.098   0.143   0.085   0.009
   2.939   0.099   0.141   0.084   0.009
   2.951   0.102   0.143   0.086   0.010
   2.963   0.108   0.147   0.089   0.010
   2.975   0.116   0.155   0.094   0.011
   2.987   0.126   0.165   0.100   0.012
   2.999   0.139   0.178   0.108   0.013
   3.011   0.152   0.191   0.117   0.014
   3.023   0.163   0.201   0.124   0.015
   3.036   0.170   0.205   0.127   0.016
   3.048   0.171   0.201   0.126   0.016
   3.060   0.168   0.190   0.121   0.016
   3.072   0.164   0.175   0.115   0.015
   3.084   0.161   0.160   0.109   0.014
   3.096   0.162   0.146   0.104   0.014
   3.108   0.166   0.136   0.101   0.013
   3.120   0.176   0.128   0.101   0.014
   3.132   0.190   0.123   0.103   0.014
   3.144   0.207   0.120   0.107   0.015
   3.156   0.224   0.120   0.112   0.016
   3.169   0.234   0.123   0.117   0.016
   3.181   0.234   0.128   0.121   0.017
   3.193   0.223   0.136   0.123   0.016
   3.205   0.203   0.148   0.125   0.016
   3.217   0.178   0.163   0.127   0.015
   3.229   0.153   0.183   0.133   0.015
   3.241   0.131   0.209   0.141   0.015
   3.253   0.112   0.241   0.154   0.015
   3.265   0.096   0.278   0.171   0.016
   3.277   0.083   0.321   0.191   0.017
   3.289   0.072   0.364   0.212   0.018
   3.302   0.064   0.398   0.229   0.019
   3.314   0.057   0.416   0.237   0.019
   3.326   0.051   0.410   0.232   0.019
   3.338   0.046   0.382   0.216   0.017
   3.350   0.042   0.341   0.193   0.016
   3.362   0.038   0.295   0.167   0.014
   3.374   0.035   0.252   0.143   0.012
   3.386   0.032   0.214   0.122   0.010