  -5.442   0.001   0.001   0.001   0.000
  -5.430   0.001   0.001   0.001   0.000
  -5.418   0.001   0.001   0.001   0.000
  -5.406   0.001   0.001   0.001   0.000
  -5.394   0.001   0.001   0.001   0.000
  -5.382   0.001   0.001   0.001   0.000
  -5.370   0.001   0.001   0.001   0.000
  -5.357   0.001   0.001   0.001   0.000
  -5.345   0.001   0.001   0.001   0.000
  -5.333   0.001   0.001   0.001   0.000
  -5.321   0.001   0.001   0.001   0.000
  -5.309   0.001   0.001   0.001   0.000
  -5.297   0.001   0.001   0.001   0.000
  -5.285   0.001   0.001   0.001   0.000
  -5.273   0.001   0.001   0.001   0.000
  -5.261   0.001   0.001   0.001   0.000
  -5.249   0.001   0.001   0.001   0.000
  -5.237   0.001   0.001   0.001   0.000
  -5.224   0.001   0.001   0.001   0.000
  -5.212   0.001   0.001   0.001   0.000
  -5.200   0.001   0.001   0.001   0.000
  -5.188   0.001   0.001   0.001   0.000
  -5.176   0.001   0.001   0.001   0.000
  -5.164   0.001   0.001   0.001   0.000
  -5.152   0.001   0.001   0.001   0.000
  -5.140   0.001   0.001   0.001   0.000
  -5.128   0.001   0.001   0.001   0.000
  -5.116   0.001   0.001   0.001   0.000
  -5.104   0.001   0.001   0.001   0.000
  -5.091   0.001   0.001   0.001   0.000
  -5.079   0.001   0.001   0.001   0.000
  -5.067   0.001   0.001   0.001   0.000
  -5.055   0.001   0.001   0.001   0.000
  -5.043   0.001   0.001   0.001   0.000
  -5.031   0.001   0.001   0.001   0.000
  -5.019   0.001   0.001   0.001   0.000
  -5.007   0.001   0.001   0.001   0.000
  -4.995   0.001   0.001   0.001   0.000
  -4.983   0.001   0.001   0.001   0.000
  -4.970   0.001   0.001   0.001   0.000
  -4.958   0.001   0.001   0.001   0.000
  -4.946   0.001   0.001   0.001   0.000
  -4.934   0.001   0.001   0.001   0.000
  -4.922   0.001   0.001   0.001   0.000
  -4.910   0.001   0.001   0.001   0.000
  -4.898   0.001   0.001   0.001   0.000
  -4.886   0.001   0.001   0.001   0.000
  -4.874   0.001   0.001   0.001   0.000
  -4.862   0.001   0.001   0.001   0.000
  -4.850   0.001   0.001   0.001   0.000
  -4.837   0.001   0.001   0.001   0.000
  -4.825   0.001   0.001   0.001   0.000
  -4.813   0.001   0.001   0.001   0.000
  -4.801   0.001   0.002   0.001   0.000
  -4.789   0.001   0.002   0.001   0.000
  -4.777   0.001   0.002   0.001   0.000
  -4.765   0.002   0.002   0.001   0.000
  -4.753   0.002   0.002   0.001   0.000
  -4.741   0.002   0.002   0.001   0.000
  -4.729   0.002   0.002   0.001   0.000
  -4.717   0.002   0.002   0.001   0.000
  -4.704   0.002   0.002   0.001   0.000
  -4.692   0.002   0.002   0.001   0.000
  -4.680   0.002   0.002   0.001   0.000
  -4.668   0.002   0.002   0.001   0.000
  -4.656   0.002   0.002   0.001   0.000
  -4.644   0.002   0.002   0.001   0.000
  -4.632   0.002   0.002   0.001   0.000
  -4.620   0.002   0.002   0.001   0.000
  -4.608   0.002   0.002   0.001   0.000
  -4.596   0.002   0.002   0.001   0.000
  -4.583   0.002   0.002   0.001   0.000
  -4.571   0.002   0.002   0.001   0.000
  -4.559   0.002   0.002   0.001   0.000
  -4.547   0.002   0.002   0.001   0.000
  -4.535   0.002   0.002   0.001   0.000
  -4.523   0.002   0.002   0.001   0.000
  -4.511   0.002   0.002   0.001   0.000
  -4.499   0.002   0.002   0.001   0.000
  -4.487   0.002   0.002   0.001   0.000
  -4.475   0.002   0.002   0.001   0.000
  -4.463   0.002   0.002   0.001   0.000
  -4.450   0.002   0.002   0.001   0.000
  -4.438   0.002   0.002   0.001   0.000
  -4.426   0.002   0.002   0.001   0.000
  -4.414   0.002   0.002   0.001   0.000
  -4.402   0.002   0.002   0.001   0.000
  -4.390   0.002   0.002   0.001   0.000
  -4.378   0.002   0.002   0.001   0.000
  -4.366   0.002   0.002   0.001   0.000
  -4.354   0.002   0.002   0.001   0.000
  -4.342   0.002   0.002   0.001   0.000
  -4.330   0.002   0.002   0.001   0.000
  -4.317   0.002   0.002   0.001   0.000
  -4.305   0.002   0.002   0.001   0.000
  -4.293   0.002   0.002   0.001   0.000
  -4.281   0.002   0.002   0.001   0.000
  -4.269   0.002   0.002   0.001   0.000
  -4.257   0.002   0.002   0.001   0.000
  -4.245   0.002   0.002   0.001   0.000
  -4.233   0.002   0.002   0.001   0.000
  -4.221   0.002   0.002   0.001   0.000
  -4.209   0.002   0.002   0.001   0.000
  -4.196   0.002   0.002   0.001   0.000
  -4.184   0.002   0.002   0.001   0.000
  -4.172   0.002   0.002   0.001   0.000
  -4.160   0.002   0.002   0.001   0.000
  -4.148   0.002   0.002   0.001   0.000
  -4.136   0.003   0.002   0.001   0.000
  -4.124   0.003   0.002   0.001   0.000
  -4.112   0.003   0.002   0.001   0.000
  -4.100   0.003   0.002   0.001   0.000
  -4.088   0.003   0.002   0.001   0.000
  -4.076   0.003   0.002   0.001   0.000
  -4.063   0.003   0.002   0.001   0.000
  -4.051   0.003   0.002   0.001   0.000
  -4.039   0.003   0.002   0.001   0.000
  -4.027   0.003   0.002   0.001   0.000
  -4.015   0.003   0.002   0.001   0.000
  -4.003   0.003   0.002   0.001   0.000
  -3.991   0.003   0.002   0.001   0.000
  -3.979   0.003   0.002   0.001   0.000
  -3.967   0.003   0.002   0.001   0.000
  -3.955   0.003   0.002   0.001   0.000
  -3.943   0.003   0.002   0.001   0.000
  -3.930   0.003   0.002   0.001   0.000
  -3.918   0.003   0.002   0.001   0.000
  -3.906   0.003   0.002   0.001   0.000
  -3.894   0.003   0.002   0.001   0.000
  -3.882   0.003   0.002   0.001   0.000
  -3.870   0.003   0.002   0.001   0.000
  -3.858   0.004   0.002   0.001   0.000
  -3.846   0.004   0.002   0.001   0.000
  -3.834   0.004   0.002   0.001   0.000
  -3.822   0.004   0.002   0.001   0.000
  -3.809   0.004   0.002   0.001   0.000
  -3.797   0.004   0.002   0.001   0.000
  -3.785   0.004   0.002   0.001   0.000
  -3.773   0.004   0.002   0.001   0.000
  -3.761   0.004   0.002   0.001   0.000
  -3.749   0.004   0.002   0.001   0.000
  -3.737   0.004   0.002   0.001   0.000
  -3.725   0.004   0.002   0.001   0.000
  -3.713   0.004   0.002   0.001   0.000
  -3.701   0.005   0.002   0.001   0.000
  -3.689   0.005   0.002   0.001   0.000
  -3.676   0.005   0.002   0.001   0.000
  -3.664   0.005   0.002   0.001   0.000
  -3.652   0.005   0.002   0.001   0.000
  -3.640   0.005   0.002   0.001   0.000
  -3.628   0.005   0.002   0.001   0.000
  -3.616   0.005   0.002   0.001   0.000
  -3.604   0.006   0.002   0.001   0.000
  -3.592   0.006   0.002   0.001   0.000
  -3.580   0.006   0.002   0.001   0.000
  -3.568   0.006   0.002   0.001   0.000
  -3.556   0.006   0.002   0.001   0.000
  -3.543   0.007   0.002   0.001   0.000
  -3.531   0.007   0.002   0.001   0.000
  -3.519   0.007   0.003   0.001   0.000
  -3.507   0.008   0.003   0.001   0.000
  -3.495   0.008   0.003   0.001   0.000
  -3.483   0.008   0.003   0.001   0.000
  -3.471   0.009   0.003   0.001   0.000
  -3.459   0.009   0.003   0.001   0.000
  -3.447   0.010   0.003   0.001   0.000
  -3.435   0.011   0.003   0.001   0.000
  -3.423   0.011   0.003   0.001   0.000
  -3.410   0.012   0.003   0.001   0.000
  -3.398   0.013   0.003   0.001   0.000
  -3.386   0.015   0.003   0.001   0.000
  -3.374   0.016   0.003   0.001   0.000
  -3.362   0.018   0.003   0.001   0.000
  -3.350   0.020   0.003   0.001   0.000
  -3.338   0.023   0.003   0.001   0.000
  -3.326   0.026   0.003   0.001   0.000
  -3.314   0.030   0.003   0.001   0.000
  -3.302   0.033   0.003   0.001   0.000
  -3.289   0.036   0.003   0.001   0.000
  -3.277   0.038   0.003   0.001   0.000
  -3.265   0.038   0.003   0.001   0.000
  -3.253   0.036   0.003   0.001   0.000
  -3.241   0.033   0.003   0.001   0.000
  -3.229   0.030   0.003   0.001   0.000
  -3.217   0.028   0.003   0.001   0.000
  -3.205   0.026   0.004   0.001   0.000
  -3.193   0.024   0.004   0.001   0.000
  -3.181   0.023   0.004   0.001   0.000
  -3.169   0.022   0.004   0.001   0.000
  -3.156   0.021   0.004   0.001   0.000
  -3.144   0.021   0.004   0.001   0.000
  -3.132   0.021   0.004   0.001   0.000
  -3.120   0.021   0.004   0.001   0.000
  -3.108   0.022   0.004   0.001   0.000
  -3.096   0.022   0.004   0.001   0.000
  -3.084   0.023   0.005   0.001   0.000
  -3.072   0.024   0.005   0.001   0.000
  -3.060   0.026   0.005   0.001   0.000
  -3.048   0.027   0.005   0.001   0.000
  -3.036   0.029   0.005   0.001   0.000
  -3.023   0.031   0.006   0.001   0.000
  -3.011   0.034   0.006   0.001   0.000
  -2.999   0.036   0.006   0.001   0.000
  -2.987   0.040   0.006   0.001   0.000
  -2.975   0.044   0.007   0.001   0.000
  -2.963   0.049   0.007   0.001   0.000
  -2.951   0.054   0.008   0.001   0.000
  -2.939   0.061   0.009   0.001   0.000
  -2.927   0.069   0.010   0.001   0.000
  -2.915   0.079   0.011   0.001   0.000
  -2.902   0.091   0.012   0.001   0.000
  -2.890   0.106   0.013   0.001   0.000
  -2.878   0.124   0.015   0.001   0.000
  -2.866   0.147   0.017   0.001   0.000
  -2.854   0.174   0.020   0.001   0.000
  -2.842   0.206   0.023   0.001   0.000
  -2.830   0.242   0.027   0.002   0.000
  -2.818   0.277   0.030   0.002   0.000
  -2.806   0.305   0.033   0.002   0.000
  -2.794   0.318   0.035   0.002   0.000
  -2.782   0.313   0.034   0.002   0.000
  -2.769   0.291   0.032   0.002   0.000
  -2.757   0.258   0.029   0.002   0.000
  -2.745   0.223   0.025   0.002   0.000
  -2.733   0.190   0.022   0.001   0.000
  -2.721   0.161   0.019   0.001   0.000
  -2.709   0.136   0.017   0.001   0.000
  -2.697   0.117   0.015   0.001   0.000
  -2.685   0.101   0.014   0.001   0.000
  -2.673   0.088   0.012   0.001   0.000
  -2.661   0.078   0.012   0.001   0.000
  -2.649   0.069   0.011   0.001   0.000
  -2.636   0.063   0.010   0.001   0.000
  -2.624   0.057   0.010   0.001   0.000
  -2.612   0.053   0.009   0.001   0.000
  -2.600   0.049   0.009   0.001   0.000
  -2.588   0.046   0.009   0.001   0.000
  -2.576   0.044   0.009   0.001   0.000
  -2.564   0.042   0.009   0.001   0.000
  -2.552   0.041   0.009   0.001   0.000
  -2.540   0.040   0.009   0.001   0.000
  -2.528   0.040   0.009   0.001   0.000
  -2.515   0.040   0.009   0.001   0.000
  -2.503   0.040   0.010   0.001   0.000
  -2.491   0.041   0.010   0.001   0.000
  -2.479   0.043   0.010   0.001   0.000
  -2.467   0.045   0.011   0.001   0.000
  -2.455   0.047   0.012   0.001   0.000
  -2.443   0.051   0.013   0.002   0.000
  -2.431   0.055   0.014   0.002   0.000
  -2.419   0.061   0.015   0.002   0.000
  -2.407   0.067   0.016   0.002   0.000
  -2.395   0.076   0.018   0.002   0.000
  -2.382   0.087   0.021   0.002   0.000
  -2.370   0.100   0.023   0.002   0.000
  -2.358   0.115   0.027   0.002   0.000
  -2.346   0.131   0.030   0.002   0.000
  -2.334   0.146   0.033   0.002   0.000
  -2.322   0.157   0.036   0.003   0.000
  -2.310   0.160   0.037   0.003   0.000
  -2.298   0.155   0.036   0.003   0.000
  -2.286   0.143   0.033   0.003   0.000
  -2.274   0.128   0.030   0.002   0.000
  -2.262   0.113   0.027   0.002   0.000
  -2.249   0.099   0.024   0.002   0.000
  -2.237   0.087   0.022   0.002   0.000
  -2.225   0.077   0.020   0.002   0.000
  -2.213   0.070   0.019   0.002   0.000
  -2.201   0.064   0.018   0.002   0.000
  -2.189   0.059   0.017   0.002   0.000
  -2.177   0.056   0.017   0.002   0.000
  -2.165   0.054   0.016   0.002   0.000
  -2.153   0.052   0.016   0.002   0.000
  -2.141   0.051   0.016   0.002   0.000
  -2.128   0.051   0.017   0.002   0.000
  -2.116   0.051   0.017   0.002   0.000
  -2.104   0.052   0.018   0.002   0.000
  -2.092   0.054   0.018   0.002   0.000
  -2.080   0.056   0.019   0.002   0.000
  -2.068   0.058   0.020   0.002   0.000
  -2.056   0.062   0.021   0.002   0.000
  -2.044   0.066   0.023   0.002   0.000
  -2.032   0.071   0.025   0.003   0.000
  -2.020   0.077   0.027   0.003   0.000
  -2.008   0.084   0.029   0.003   0.000
  -1.995   0.093   0.032   0.003   0.000
  -1.983   0.104   0.036   0.003   0.000
  -1.971   0.117   0.040   0.004   0.000
  -1.959   0.133   0.046   0.004   0.000
  -1.947   0.153   0.052   0.004   0.000
  -1.935   0.177   0.060   0.005   0.000
  -1.923   0.207   0.070   0.006   0.000
  -1.911   0.244   0.082   0.006   0.001
  -1.899   0.289   0.097   0.007   0.001
  -1.887   0.342   0.114   0.008   0.001
  -1.875   0.399   0.133   0.010   0.001
  -1.862   0.456   0.152   0.011   0.001
  -1.850   0.500   0.166   0.012   0.001
  -1.838   0.520   0.173   0.012   0.001
  -1.826   0.509   0.169   0.012   0.001
  -1.814   0.470   0.157   0.011   0.001
  -1.802   0.416   0.139   0.010   0.001
  -1.790   0.358   0.120   0.009   0.001
  -1.778   0.304   0.103   0.008   0.001
  -1.766   0.258   0.088   0.007   0.001
  -1.754   0.219   0.075   0.006   0.001
  -1.741   0.187   0.065   0.005   0.001
  -1.729   0.161   0.057   0.005   0.000
  -1.717   0.141   0.050   0.004   0.000
  -1.705   0.124   0.045   0.004   0.000
  -1.693   0.111   0.041   0.004   0.000
  -1.681   0.100   0.037   0.004   0.000
  -1.669   0.091   0.034   0.003   0.000
  -1.657   0.083   0.032   0.003   0.000
  -1.645   0.078   0.030   0.003   0.000
  -1.633   0.073   0.029   0.003   0.000
  -1.621   0.069   0.028   0.003   0.000
  -1.608   0.066   0.028   0.003   0.000
  -1.596   0.064   0.027   0.003   0.000
  -1.584   0.063   0.027   0.003   0.000
  -1.572   0.062   0.027   0.003   0.000
  -1.560   0.062   0.028   0.003   0.000
  -1.548   0.063   0.028   0.003   0.000
  -1.536   0.065   0.030   0.003   0.000
  -1.524   0.068   0.031   0.004   0.000
  -1.512   0.071   0.033   0.004   0.000
  -1.500   0.076   0.035   0.004   0.001
  -1.488   0.082   0.039   0.004   0.001
  -1.475   0.090   0.043   0.005   0.001
  -1.463   0.100   0.048   0.005   0.001
  -1.451   0.113   0.054   0.006   0.001
  -1.439   0.130   0.061   0.006   0.001
  -1.427   0.149   0.071   0.007   0.001
  -1.415   0.173   0.082   0.008   0.001
  -1.403   0.198   0.094   0.009   0.001
  -1.391   0.223   0.105   0.010   0.001
  -1.379   0.242   0.114   0.011   0.001
  -1.367   0.250   0.118   0.011   0.001
  -1.354   0.245   0.116   0.011   0.001
  -1.342   0.227   0.108   0.010   0.001
  -1.330   0.203   0.097   0.009   0.001
  -1.318   0.177   0.085   0.008   0.001
  -1.306   0.153   0.074   0.008   0.001
  -1.294   0.132   0.065   0.007   0.001
  -1.282   0.115   0.057   0.006   0.001
  -1.270   0.101   0.051   0.006   0.001
  -1.258   0.090   0.046   0.005   0.001
  -1.246   0.082   0.042   0.005   0.001
  -1.234   0.075   0.039   0.005   0.001
  -1.221   0.070   0.037   0.005   0.001
  -1.209   0.066   0.036   0.005   0.001
  -1.197   0.063   0.035   0.004   0.001
  -1.185   0.060   0.034   0.004   0.001
  -1.173   0.059   0.034   0.004   0.001
  -1.161   0.058   0.034   0.004   0.001
  -1.149   0.058   0.034   0.005   0.001
  -1.137   0.059   0.035   0.005   0.001
  -1.125   0.060   0.036   0.005   0.001
  -1.113   0.062   0.038   0.005   0.001
  -1.101   0.065   0.040   0.005   0.001
  -1.088   0.069   0.042   0.006   0.001
  -1.076   0.073   0.045   0.006   0.001
  -1.064   0.079   0.049   0.006   0.001
  -1.052   0.086   0.053   0.007   0.001
  -1.040   0.095   0.059   0.008   0.001
  -1.028   0.106   0.066   0.008   0.001
  -1.016   0.119   0.074   0.009   0.001
  -1.004   0.136   0.085   0.010   0.001
  -0.992   0.157   0.098   0.012   0.001
  -0.980   0.183   0.114   0.014   0.001
  -0.967   0.215   0.134   0.016   0.001
  -0.955   0.253   0.157   0.018   0.001
  -0.943   0.297   0.184   0.021   0.001
  -0.931   0.343   0.213   0.024   0.001
  -0.919   0.385   0.239   0.027   0.002
  -0.907   0.413   0.256   0.029   0.002
  -0.895   0.419   0.260   0.030   0.002
  -0.883   0.400   0.248   0.028   0.002
  -0.871   0.363   0.226   0.026   0.002
  -0.859   0.318   0.198   0.023   0.001
  -0.847   0.272   0.170   0.020   0.001
  -0.834   0.231   0.145   0.017   0.001
  -0.822   0.196   0.124   0.015   0.001
  -0.810   0.167   0.106   0.013   0.001
  -0.798   0.144   0.092   0.011   0.001
  -0.786   0.125   0.081   0.010   0.001
  -0.774   0.110   0.072   0.009   0.001
  -0.762   0.097   0.064   0.008   0.001
  -0.750   0.087   0.058   0.008   0.001
  -0.738   0.079   0.053   0.007   0.001
  -0.726   0.072   0.049   0.007   0.001
  -0.714   0.067   0.046   0.007   0.001
  -0.701   0.062   0.044   0.006   0.001
  -0.689   0.059   0.042   0.006   0.001
  -0.677   0.056   0.040   0.006   0.001
  -0.665   0.053   0.039   0.006   0.001
  -0.653   0.052   0.038   0.006   0.001
  -0.641   0.050   0.038   0.006   0.001
  -0.629   0.050   0.038   0.006   0.001
  -0.617   0.050   0.038   0.006   0.001
  -0.605   0.050   0.039   0.006   0.001
  -0.593   0.051   0.040   0.006   0.001
  -0.580   0.052   0.042   0.007   0.001
  -0.568   0.055   0.044   0.007   0.001
  -0.556   0.058   0.047   0.007   0.001
  -0.544   0.062   0.051   0.008   0.001
  -0.532   0.067   0.056   0.008   0.001
  -0.520   0.074   0.061   0.009   0.001
  -0.508   0.083   0.069   0.010   0.001
  -0.496   0.093   0.078   0.011   0.001
  -0.484   0.106   0.088   0.013   0.001
  -0.472   0.119   0.099   0.014   0.001
  -0.460   0.132   0.110   0.016   0.001
  -0.447   0.141   0.118   0.017   0.001
  -0.435   0.145   0.121   0.017   0.001
  -0.423   0.141   0.118   0.017   0.001
  -0.411   0.131   0.111   0.016   0.001
  -0.399   0.119   0.101   0.015   0.001
  -0.387   0.106   0.091   0.013   0.001
  -0.375   0.094   0.082   0.012   0.001
  -0.363   0.084   0.074   0.011   0.001
  -0.351   0.077   0.068   0.010   0.001
  -0.339   0.070   0.064   0.010   0.001
  -0.327   0.066   0.060   0.009   0.001
  -0.314   0.062   0.058   0.009   0.001
  -0.302   0.060   0.057   0.009   0.001
  -0.290   0.059   0.056   0.009   0.001
  -0.278   0.058   0.056   0.009   0.001
  -0.266   0.058   0.057   0.009   0.001
  -0.254   0.059   0.059   0.009   0.001
  -0.242   0.060   0.061   0.010   0.001
  -0.230   0.062   0.063   0.010   0.001
  -0.218   0.065   0.067   0.011   0.001
  -0.206   0.068   0.071   0.011   0.001
  -0.193   0.072   0.076   0.012   0.001
  -0.181   0.078   0.082   0.013   0.001
  -0.169   0.084   0.089   0.014   0.001
  -0.157   0.092   0.097   0.015   0.001
  -0.145   0.101   0.108   0.017   0.001
  -0.133   0.112   0.120   0.018   0.002
  -0.121   0.126   0.135   0.021   0.002
  -0.109   0.143   0.153   0.023   0.002
  -0.097   0.163   0.175   0.026   0.002
  -0.085   0.188   0.203   0.030   0.002
  -0.073   0.220   0.237   0.035   0.003
  -0.060   0.258   0.279   0.041   0.003
  -0.048   0.306   0.330   0.049   0.003
  -0.036   0.362   0.391   0.057   0.004
  -0.024   0.428   0.461   0.067   0.004
  -0.012   0.497   0.536   0.078   0.005
   0.000   0.560   0.604   0.088   0.006
   0.012   0.603   0.651   0.095   0.006
   0.024   0.613   0.662   0.096   0.006
   0.036   0.587   0.634   0.092   0.006
   0.048   0.533   0.576   0.084   0.005
   0.060   0.465   0.503   0.074   0.005
   0.073   0.397   0.429   0.063   0.004
   0.085   0.335   0.363   0.054   0.004
   0.097   0.282   0.307   0.045   0.003
   0.109   0.239   0.260   0.039   0.003
   0.121   0.203   0.222   0.033   0.002
   0.133   0.175   0.191   0.029   0.002
   0.145   0.151   0.167   0.026   0.002
   0.157   0.133   0.146   0.023   0.002
   0.169   0.117   0.130   0.020   0.002
   0.181   0.104   0.116   0.018   0.002
   0.193   0.094   0.105   0.017   0.001
   0.206   0.085   0.096   0.016   0.001
   0.218   0.078   0.088   0.014   0.001
   0.230   0.071   0.082   0.014   0.001
   0.242   0.066   0.077   0.013   0.001
   0.254   0.062   0.072   0.012   0.001
   0.266   0.058   0.069   0.012   0.001
   0.278   0.055   0.066   0.011   0.001
   0.290   0.053   0.064   0.011   0.001
   0.302   0.051   0.062   0.011   0.001
   0.314   0.050   0.061   0.011   0.001
   0.327   0.049   0.061   0.011   0.001
   0.339   0.048   0.061   0.011   0.001
   0.351   0.049   0.062   0.011   0.001
   0.363   0.049   0.064   0.012   0.001
   0.375   0.051   0.066   0.012   0.001
   0.387   0.053   0.070   0.013   0.001
   0.399   0.057   0.075   0.014   0.001
   0.411   0.061   0.081   0.015   0.001
   0.423   0.067   0.088   0.017   0.002
   0.435   0.074   0.097   0.018   0.002
   0.447   0.081   0.107   0.020   0.002
   0.460   0.088   0.116   0.022   0.002
   0.472   0.092   0.122   0.023   0.002
   0.484   0.092   0.124   0.023   0.002
   0.496   0.089   0.120   0.023   0.002
   0.508   0.082   0.114   0.021   0.002
   0.520   0.074   0.105   0.019   0.002
   0.532   0.067   0.097   0.018   0.002
   0.544   0.060   0.091   0.016   0.002
   0.556   0.054   0.085   0.015   0.002
   0.568   0.049   0.082   0.014   0.002
   0.580   0.045   0.080   0.013   0.002
   0.593   0.042   0.080   0.013   0.002
   0.605   0.040   0.080   0.012   0.002
   0.617   0.039   0.083   0.012   0.002
   0.629   0.037   0.086   0.012   0.002
   0.641   0.037   0.092   0.012   0.002
   0.653   0.036   0.099   0.012   0.002
   0.665   0.036   0.108   0.012   0.002
   0.677   0.037   0.120   0.012   0.002
   0.689   0.037   0.134   0.013   0.003
   0.701   0.038   0.152   0.013   0.003
   0.714   0.040   0.172   0.014   0.003
   0.726   0.042   0.193   0.015   0.004
   0.738   0.044   0.213   0.016   0.004
   0.750   0.047   0.228   0.017   0.004
   0.762   0.050   0.234   0.018   0.004
   0.774   0.055   0.233   0.020   0.004
   0.786   0.060   0.227   0.022   0.004
   0.798   0.066   0.221   0.024   0.004
   0.810   0.074   0.218   0.027   0.004
   0.822   0.084   0.220   0.031   0.004
   0.834   0.097   0.228   0.035   0.004
   0.847   0.112   0.243   0.041   0.004
   0.859   0.130   0.266   0.047   0.004
   0.871   0.152   0.297   0.055   0.005
   0.883   0.177   0.333   0.064   0.005
   0.895   0.202   0.372   0.073   0.006
   0.907   0.224   0.405   0.081   0.006
   0.919   0.237   0.425   0.085   0.006
   0.931   0.237   0.423   0.086   0.006
   0.943   0.225   0.400   0.082   0.006
   0.955   0.205   0.363   0.075   0.006
   0.967   0.182   0.321   0.067   0.005
   0.980   0.160   0.281   0.059   0.004
   0.992   0.141   0.247   0.052   0.004
   1.004   0.126   0.219   0.047   0.004
   1.016   0.114   0.197   0.044   0.003
   1.028   0.106   0.181   0.041   0.003
   1.040   0.101   0.171   0.040   0.003
   1.052   0.100   0.164   0.039   0.003
   1.064   0.100   0.162   0.040   0.003
   1.076   0.104   0.164   0.042   0.003
   1.088   0.111   0.170   0.045   0.003
   1.101   0.120   0.181   0.049   0.003
   1.113   0.133   0.196   0.054   0.003
   1.125   0.146   0.217   0.061   0.004
   1.137   0.159   0.243   0.067   0.004
   1.149   0.168   0.273   0.072   0.004
   1.161   0.169   0.303   0.075   0.005
   1.173   0.162   0.326   0.074   0.005
   1.185   0.148   0.336   0.071   0.005
   1.197   0.132   0.329   0.066   0.005
   1.209   0.115   0.306   0.059   0.005
   1.221   0.100   0.274   0.052   0.004
   1.234   0.087   0.240   0.046   0.004
   1.246   0.077   0.208   0.040   0.003
   1.258   0.068   0.180   0.036   0.003
   1.270   0.062   0.157   0.032   0.003
   1.282   0.056   0.139   0.029   0.003
   1.294   0.052   0.124   0.027   0.002
   1.306   0.048   0.112   0.025   0.002
   1.318   0.046   0.102   0.024   0.002
   1.330   0.044   0.094   0.023   0.002
   1.342   0.042   0.089   0.022   0.002
   1.354   0.041   0.084   0.022   0.002
   1.367   0.041   0.081   0.021   0.002
   1.379   0.040   0.079   0.021   0.002
   1.391   0.041   0.077   0.022   0.002
   1.403   0.041   0.077   0.022   0.002
   1.415   0.042   0.077   0.023   0.002
   1.427   0.044   0.078   0.024   0.002
   1.439   0.046   0.081   0.025   0.002
   1.451   0.048   0.084   0.026   0.002
   1.463   0.052   0.089   0.028   0.002
   1.475   0.056   0.094   0.031   0.002
   1.488   0.061   0.102   0.033   0.002
   1.500   0.067   0.112   0.037   0.003
   1.512   0.075   0.124   0.041   0.003
   1.524   0.085   0.140   0.047   0.003
   1.536   0.097   0.159   0.054   0.004
   1.548   0.113   0.183   0.062   0.004
   1.560   0.131   0.212   0.072   0.005
   1.572   0.154   0.245   0.084   0.005
   1.584   0.180   0.281   0.097   0.006
   1.596   0.207   0.314   0.110   0.007
   1.608   0.232   0.338   0.122   0.007
   1.621   0.250   0.346   0.128   0.008
   1.633   0.255   0.335   0.128   0.008
   1.645   0.245   0.308   0.121   0.007
   1.657   0.224   0.274   0.110   0.007
   1.669   0.197   0.239   0.097   0.006
   1.681   0.170   0.207   0.084   0.005
   1.693   0.145   0.179   0.073   0.005
   1.705   0.124   0.157   0.063   0.004
   1.717   0.107   0.139   0.055   0.004
   1.729   0.093   0.124   0.049   0.003
   1.741   0.082   0.113   0.044   0.003
   1.754   0.074   0.104   0.041   0.003
   1.766   0.067   0.098   0.038   0.003
   1.778   0.061   0.093   0.036   0.003
   1.790   0.057   0.089   0.034   0.003
   1.802   0.053   0.087   0.033   0.002
   1.814   0.051   0.085   0.032   0.002
   1.826   0.049   0.085   0.032   0.002
   1.838   0.048   0.086   0.032   0.002
   1.850   0.047   0.088   0.033   0.002
   1.862   0.047   0.091   0.034   0.003
   1.875   0.048   0.096   0.035   0.003
   1.887   0.049   0.101   0.037   0.003
   1.899   0.051   0.109   0.040   0.003
   1.911   0.054   0.118   0.043   0.003
   1.923   0.058   0.130   0.047   0.003
   1.935   0.063   0.145   0.052   0.004
   1.947   0.070   0.164   0.059   0.004
   1.959   0.078   0.187   0.067   0.004
   1.971   0.089   0.216   0.077   0.005
   1.983   0.102   0.252   0.089   0.006
   1.995   0.118   0.295   0.104   0.006
   2.008   0.137   0.343   0.121   0.007
   2.020   0.156   0.394   0.139   0.008
   2.032   0.173   0.439   0.154   0.009
   2.044   0.184   0.467   0.164   0.010
   2.056   0.185   0.471   0.166   0.010
   2.068   0.176   0.447   0.158   0.010
   2.080   0.160   0.405   0.143   0.009
   2.092   0.141   0.355   0.126   0.008
   2.104   0.121   0.306   0.109   0.007
   2.116   0.104   0.262   0.093   0.006
   2.128   0.090   0.224   0.081   0.005
   2.141   0.078   0.194   0.070   0.005
   2.153   0.068   0.170   0.062   0.004
   2.165   0.060   0.150   0.055   0.004
   2.177   0.054   0.134   0.049   0.004
   2.189   0.049   0.122   0.045   0.003
   2.201   0.045   0.112   0.042   0.003
   2.213   0.041   0.104   0.039   0.003
   2.225   0.039   0.097   0.037   0.003
   2.237   0.036   0.092   0.035   0.003
   2.249   0.034   0.089   0.034   0.003
   2.262   0.033   0.086   0.033   0.003
   2.274   0.032   0.085   0.033   0.003
   2.286   0.031   0.084   0.033   0.003
   2.298   0.030   0.085   0.033   0.003
   2.310   0.029   0.086   0.033   0.003
   2.322   0.029   0.088   0.034   0.003
   2.334   0.029   0.092   0.035   0.003
   2.346   0.029   0.096   0.037   0.003
   2.358   0.029   0.102   0.039   0.003
   2.370   0.029   0.110   0.042   0.003
   2.382   0.029   0.120   0.046   0.004
   2.395   0.030   0.133   0.050   0.004
   2.407   0.030   0.149   0.055   0.004
   2.419   0.031   0.169   0.062   0.005
   2.431   0.032   0.192   0.070   0.005
   2.443   0.033   0.219   0.079   0.006
   2.455   0.034   0.247   0.089   0.006
   2.467   0.036   0.273   0.098   0.007
   2.479   0.037   0.291   0.104   0.007
   2.491   0.039   0.297   0.106   0.007
   2.503   0.041   0.288   0.104   0.007
   2.515   0.044   0.269   0.099   0.007
   2.528   0.047   0.247   0.093   0.007
   2.540   0.050   0.225   0.087   0.007
   2.552   0.054   0.207   0.082   0.006
   2.564   0.058   0.193   0.079   0.006
   2.576   0.064   0.184   0.078   0.007
   2.588   0.070   0.180   0.079   0.007
   2.600   0.077   0.180   0.081   0.007
   2.612   0.086   0.184   0.085   0.008
   2.624   0.096   0.193   0.091   0.008
   2.636   0.109   0.206   0.099   0.009
   2.649   0.124   0.225   0.110   0.010
   2.661   0.143   0.250   0.124   0.011
   2.673   0.165   0.282   0.141   0.013
   2.685   0.193   0.324   0.163   0.015
   2.697   0.227   0.375   0.190   0.017
   2.709   0.267   0.436   0.222   0.020
   2.721   0.313   0.506   0.259   0.023
   2.733   0.360   0.578   0.297   0.026
   2.745   0.401   0.640   0.329   0.029
   2.757   0.427   0.676   0.349   0.031
   2.769   0.432   0.676   0.350   0.031
   2.782   0.416   0.639   0.332   0.030
   2.794   0.387   0.578   0.302   0.028
   2.806   0.353   0.507   0.268   0.025
   2.818   0.322   0.440   0.236   0.023
   2.830   0.300   0.381   0.208   0.021
   2.842   0.286   0.333   0.187   0.020
   2.854   0.282   0.295   0.171   0.019
   2.866   0.288   0.268   0.162   0.019
   2.878   0.302   0.248   0.157   0.019
   2.890   0.322   0.236   0.156   0.020
   2.902   0.344   0.230   0.158   0.021
   2.915   0.362   0.230   0.161   0.022
   2.927   0.371   0.234   0.163   0.023
   2.939   0.367   0.240   0.164   0.024
   2.951   0.352   0.242   0.161   0.023
   2.963   0.327   0.239   0.154   0.022
   2.975   0.295   0.228   0.143   0.021
   2.987   0.259   0.211   0.130   0.018
   2.999   0.224   0.190   0.116   0.016
   3.011   0.193   0.170   0.103   0.014
   3.023   0.165   0.152   0.091   0.012
   3.036   0.142   0.137   0.081   0.011
   3.048   0.123   0.124   0.073   0.010
   3.060   0.107   0.114   0.066   0.009
   3.072   0.094   0.106   0.061   0.008
   3.084   0.084   0.100   0.057   0.007
   3.096   0.075   0.095   0.054   0.007
   3.108   0.067   0.092   0.052   0.006
   3.120   0.061   0.090   0.050   0.006
   3.132   0.056   0.089   0.049   0.006
   3.144   0.051   0.089   0.049   0.006
   3.156   0.047   0.090   0.049   0.006
   3.169   0.044   0.092   0.050   0.005
   3.181   0.041   0.096   0.051   0.005
   3.193   0.038   0.100   0.053   0.006
   3.205   0.036   0.107   0.056   0.006
   3.217   0.034   0.115   0.060   0.006
   3.229   0.032   0.125   0.065   0.006
   3.241   0.030   0.139   0.071   0.007
   3.253   0.029   0.155   0.080   0.007
   3.265   0.027   0.176   0.090   0.008
   3.277   0.026   0.202   0.103   0.009
   3.289   0.025   0.235   0.119   0.010
   3.302   0.024   0.273   0.138   0.011
   3.314   0.023   0.318   0.160   0.013
   3.326   0.022   0.365   0.183   0.014
   3.338   0.022   0.407   0.204   0.016
   3.350   0.021   0.435   0.218   0.017
   3.362   0.021   0.440   0.220   0.017
   3.374   0.020   0.420   0.210   0.016
   3.386   0.020   0.382   0.191   0.015