 -27.211   0.014   0.001   0.000   0.000
 -27.177   0.014   0.001   0.000   0.000
 -27.143   0.015   0.001   0.000   0.000
 -27.109   0.015   0.001   0.000   0.000
 -27.075   0.015   0.001   0.000   0.000
 -27.041   0.016   0.001   0.000   0.000
 -27.007   0.016   0.001   0.000   0.000
 -26.973   0.016   0.001   0.000   0.000
 -26.939   0.017   0.001   0.000   0.000
 -26.905   0.017   0.001   0.000   0.000
 -26.871   0.017   0.001   0.000   0.000
 -26.837   0.018   0.001   0.000   0.000
 -26.803   0.018   0.001   0.000   0.000
 -26.769   0.019   0.001   0.000   0.000
 -26.735   0.019   0.001   0.000   0.000
 -26.700   0.019   0.001   0.000   0.000
 -26.666   0.020   0.001   0.000   0.000
 -26.632   0.020   0.001   0.000   0.000
 -26.598   0.021   0.001   0.000   0.000
 -26.564   0.021   0.001   0.000   0.000
 -26.530   0.022   0.001   0.000   0.000
 -26.496   0.023   0.001   0.000   0.000
 -26.462   0.023   0.001   0.000   0.000
 -26.428   0.024   0.001   0.000   0.000
 -26.394   0.024   0.001   0.000   0.000
 -26.360   0.025   0.001   0.000   0.000
 -26.326   0.026   0.001   0.000   0.000
 -26.292   0.026   0.001   0.000   0.000
 -26.258   0.027   0.001   0.000   0.000
 -26.224   0.028   0.001   0.000   0.000
 -26.190   0.029   0.001   0.000   0.000
 -26.156   0.030   0.001   0.000   0.000
 -26.122   0.030   0.001   0.000   0.000
 -26.088   0.031   0.001   0.000   0.000
 -26.054   0.032   0.001   0.000   0.000
 -26.020   0.033   0.001   0.000   0.000
 -25.986   0.034   0.001   0.000   0.000
 -25.952   0.035   0.001   0.000   0.000
 -25.918   0.037   0.001   0.000   0.000
 -25.884   0.038   0.001   0.000   0.000
 -25.850   0.039   0.001   0.000   0.000
 -25.816   0.040   0.001   0.000   0.000
 -25.782   0.042   0.001   0.000   0.000
 -25.748   0.043   0.001   0.000   0.000
 -25.714   0.045   0.001   0.000   0.000
 -25.680   0.047   0.001   0.000   0.000
 -25.646   0.048   0.001   0.000   0.000
 -25.612   0.050   0.001   0.000   0.000
 -25.578   0.052   0.001   0.000   0.000
 -25.544   0.054   0.001   0.000   0.000
 -25.510   0.056   0.001   0.000   0.000
 -25.476   0.059   0.001   0.000   0.000
 -25.442   0.061   0.001   0.000   0.000
 -25.408   0.064   0.001   0.000   0.000
 -25.374   0.067   0.001   0.000   0.000
 -25.340   0.070   0.001   0.000   0.000
 -25.306   0.073   0.001   0.000   0.000
 -25.272   0.076   0.001   0.000   0.000
 -25.238   0.080   0.001   0.000   0.000
 -25.204   0.084   0.001   0.000   0.000
 -25.170   0.088   0.001   0.000   0.000
 -25.136   0.093   0.001   0.000   0.000
 -25.102   0.098   0.001   0.000   0.000
 -25.068   0.104   0.001   0.000   0.000
 -25.034   0.109   0.001   0.000   0.000
 -25.000   0.116   0.001   0.000   0.000
 -24.966   0.123   0.001   0.000   0.000
 -24.932   0.131   0.001   0.000   0.000
 -24.898   0.139   0.001   0.000   0.000
 -24.864   0.148   0.001   0.000   0.000
 -24.830   0.158   0.001   0.000   0.000
 -24.796   0.170   0.001   0.000   0.000
 -24.762   0.182   0.001   0.000   0.000
 -24.728   0.196   0.001   0.000   0.000
 -24.694   0.212   0.001   0.000   0.000
 -24.660   0.229   0.001   0.000   0.000
 -24.626   0.249   0.001   0.000   0.000
 -24.592   0.271   0.001   0.000   0.000
 -24.558   0.296   0.001   0.000   0.000
 -24.524   0.324   0.001   0.000   0.000
 -24.490   0.356   0.001   0.000   0.000
 -24.456   0.392   0.001   0.000   0.000
 -24.422   0.433   0.001   0.000   0.000
 -24.388   0.479   0.002   0.000   0.000
 -24.354   0.531   0.002   0.000   0.000
 -24.320   0.589   0.002   0.000   0.000
 -24.286   0.653   0.002   0.000   0.000
 -24.252   0.724   0.002   0.000   0.000
 -24.218   0.801   0.002   0.000   0.000
 -24.184   0.884   0.002   0.000   0.000
 -24.149   0.971   0.002   0.000   0.000
 -24.115   1.060   0.002   0.000   0.000
 -24.081   1.150   0.002   0.000   0.000
 -24.047   1.239   0.002   0.000   0.000
 -24.013   1.327   0.002   0.000   0.000
 -23.979   1.413   0.002   0.000   0.000
 -23.945   1.497   0.002   0.000   0.000
 -23.911   1.577   0.002   0.000   0.000
 -23.877   1.649   0.002   0.000   0.000
 -23.843   1.708   0.002   0.000   0.000
 -23.809   1.749   0.002   0.000   0.000
 -23.775   1.765   0.002   0.000   0.000
 -23.741   1.754   0.002   0.000   0.000
 -23.707   1.715   0.002   0.000   0.000
 -23.673   1.647   0.002   0.000   0.000
 -23.639   1.557   0.002   0.000   0.000
 -23.605   1.450   0.002   0.000   0.000
 -23.571   1.332   0.002   0.000   0.000
 -23.537   1.211   0.002   0.000   0.000
 -23.503   1.090   0.002   0.000   0.000
 -23.469   0.976   0.002   0.000   0.000
 -23.435   0.870   0.002   0.000   0.000
 -23.401   0.775   0.002   0.000   0.000
 -23.367   0.690   0.002   0.000   0.000
 -23.333   0.615   0.002   0.000   0.000
 -23.299   0.550   0.002   0.000   0.000
 -23.265   0.494   0.002   0.000   0.000
 -23.231   0.444   0.002   0.000   0.000
 -23.197   0.401   0.002   0.000   0.000
 -23.163   0.364   0.002   0.000   0.000
 -23.129   0.331   0.002   0.000   0.000
 -23.095   0.302   0.002   0.000   0.000
 -23.061   0.277   0.002   0.000   0.000
 -23.027   0.255   0.002   0.000   0.000
 -22.993   0.235   0.002   0.000   0.000
 -22.959   0.217   0.002   0.000   0.000
 -22.925   0.201   0.002   0.000   0.000
 -22.891   0.187   0.002   0.000   0.000
 -22.857   0.174   0.002   0.000   0.000
 -22.823   0.163   0.002   0.000   0.000
 -22.789   0.152   0.002   0.000   0.000
 -22.755   0.143   0.002   0.000   0.000
 -22.721   0.134   0.002   0.000   0.000
 -22.687   0.126   0.002   0.000   0.000
 -22.653   0.119   0.002   0.000   0.000
 -22.619   0.113   0.002   0.000   0.000
 -22.585   0.107   0.002   0.000   0.000
 -22.551   0.101   0.002   0.000   0.000
 -22.517   0.096   0.002   0.000   0.000
 -22.483   0.091   0.002   0.000   0.000
 -22.449   0.086   0.002   0.000   0.000
 -22.415   0.082   0.002   0.000   0.000
 -22.381   0.079   0.002   0.000   0.000
 -22.347   0.075   0.002   0.000   0.000
 -22.313   0.072   0.002   0.000   0.000
 -22.279   0.068   0.002   0.000   0.000
 -22.245   0.066   0.002   0.000   0.000
 -22.211   0.063   0.002   0.000   0.000
 -22.177   0.060   0.002   0.000   0.000
 -22.143   0.058   0.002   0.000   0.000
 -22.109   0.056   0.002   0.000   0.000
 -22.075   0.053   0.002   0.000   0.000
 -22.041   0.051   0.002   0.000   0.000
 -22.007   0.049   0.002   0.000   0.000
 -21.973   0.048   0.002   0.000   0.000
 -21.939   0.046   0.002   0.000   0.000
 -21.905   0.044   0.002   0.000   0.000
 -21.871   0.043   0.002   0.000   0.000
 -21.837   0.041   0.002   0.000   0.000
 -21.803   0.040   0.002   0.000   0.000
 -21.769   0.039   0.002   0.000   0.000
 -21.735   0.037   0.002   0.000   0.000
 -21.701   0.036   0.002   0.000   0.000
 -21.667   0.035   0.002   0.000   0.000
 -21.633   0.034   0.002   0.000   0.000
 -21.598   0.033   0.002   0.000   0.000
 -21.564   0.032   0.002   0.000   0.000
 -21.530   0.031   0.002   0.000   0.000
 -21.496   0.030   0.002   0.000   0.000
 -21.462   0.029   0.002   0.000   0.000
 -21.428   0.028   0.002   0.000   0.000
 -21.394   0.028   0.002   0.000   0.000
 -21.360   0.027   0.002   0.000   0.000
 -21.326   0.026   0.002   0.000   0.000
 -21.292   0.025   0.002   0.000   0.000
 -21.258   0.025   0.002   0.000   0.000
 -21.224   0.024   0.002   0.000   0.000
 -21.190   0.024   0.002   0.000   0.000
 -21.156   0.023   0.002   0.000   0.000
 -21.122   0.022   0.002   0.000   0.000
 -21.088   0.022   0.002   0.000   0.000
 -21.054   0.021   0.002   0.000   0.000
 -21.020   0.021   0.002   0.000   0.000
 -20.986   0.020   0.002   0.000   0.000
 -20.952   0.020   0.002   0.000   0.000
 -20.918   0.019   0.002   0.000   0.000
 -20.884   0.019   0.002   0.000   0.000
 -20.850   0.018   0.002   0.000   0.000
 -20.816   0.018   0.002   0.000   0.000
 -20.782   0.018   0.002   0.000   0.000
 -20.748   0.017   0.002   0.000   0.000
 -20.714   0.017   0.002   0.000   0.000
 -20.680   0.016   0.002   0.000   0.000
 -20.646   0.016   0.002   0.000   0.000
 -20.612   0.016   0.002   0.000   0.000
 -20.578   0.015   0.002   0.000   0.000
 -20.544   0.015   0.002   0.000   0.000
 -20.510   0.015   0.002   0.000   0.000
 -20.476   0.015   0.002   0.000   0.000
 -20.442   0.014   0.002   0.000   0.000
 -20.408   0.014   0.002   0.000   0.000
 -20.374   0.014   0.002   0.000   0.000
 -20.340   0.013   0.002   0.000   0.000
 -20.306   0.013   0.002   0.000   0.000
 -20.272   0.013   0.002   0.000   0.000
 -20.238   0.013   0.002   0.000   0.000
 -20.204   0.012   0.002   0.000   0.000
 -20.170   0.012   0.002   0.000   0.000
 -20.136   0.012   0.002   0.000   0.000
 -20.102   0.012   0.002   0.000   0.000
 -20.068   0.012   0.002   0.000   0.000
 -20.034   0.011   0.002   0.000   0.000
 -20.000   0.011   0.002   0.000   0.000
 -19.966   0.011   0.002   0.000   0.000
 -19.932   0.011   0.002   0.000   0.000
 -19.898   0.011   0.002   0.000   0.000
 -19.864   0.010   0.002   0.000   0.000
 -19.830   0.010   0.002   0.000   0.000
 -19.796   0.010   0.002   0.000   0.000
 -19.762   0.010   0.002   0.000   0.000
 -19.728   0.010   0.002   0.000   0.000
 -19.694   0.010   0.002   0.000   0.000
 -19.660   0.009   0.002   0.000   0.000
 -19.626   0.009   0.002   0.000   0.000
 -19.592   0.009   0.002   0.000   0.000
 -19.558   0.009   0.002   0.000   0.000
 -19.524   0.009   0.002   0.000   0.000
 -19.490   0.009   0.003   0.000   0.000
 -19.456   0.009   0.003   0.000   0.000
 -19.422   0.008   0.003   0.000   0.000
 -19.388   0.008   0.003   0.000   0.000
 -19.354   0.008   0.003   0.000   0.000
 -19.320   0.008   0.003   0.000   0.000
 -19.286   0.008   0.003   0.000   0.000
 -19.252   0.008   0.003   0.000   0.000
 -19.218   0.008   0.003   0.000   0.000
 -19.184   0.008   0.003   0.000   0.000
 -19.150   0.007   0.003   0.000   0.000
 -19.116   0.007   0.003   0.000   0.000
 -19.082   0.007   0.003   0.000   0.000
 -19.047   0.007   0.003   0.000   0.000
 -19.013   0.007   0.003   0.000   0.000
 -18.979   0.007   0.003   0.000   0.000
 -18.945   0.007   0.003   0.000   0.000
 -18.911   0.007   0.003   0.000   0.000
 -18.877   0.007   0.003   0.000   0.000
 -18.843   0.007   0.003   0.000   0.000
 -18.809   0.006   0.003   0.000   0.000
 -18.775   0.006   0.003   0.000   0.000
 -18.741   0.006   0.003   0.000   0.000
 -18.707   0.006   0.003   0.000   0.000
 -18.673   0.006   0.003   0.000   0.000
 -18.639   0.006   0.003   0.000   0.000
 -18.605   0.006   0.003   0.000   0.000
 -18.571   0.006   0.003   0.000   0.000
 -18.537   0.006   0.003   0.000   0.000
 -18.503   0.006   0.003   0.000   0.000
 -18.469   0.006   0.003   0.000   0.000
 -18.435   0.006   0.003   0.000   0.000
 -18.401   0.006   0.003   0.000   0.000
 -18.367   0.005   0.003   0.000   0.000
 -18.333   0.005   0.003   0.000   0.000
 -18.299   0.005   0.003   0.000   0.000
 -18.265   0.005   0.003   0.000   0.000
 -18.231   0.005   0.003   0.000   0.000
 -18.197   0.005   0.003   0.000   0.000
 -18.163   0.005   0.003   0.000   0.000
 -18.129   0.005   0.003   0.000   0.000
 -18.095   0.005   0.003   0.000   0.000
 -18.061   0.005   0.003   0.000   0.000
 -18.027   0.005   0.003   0.000   0.000
 -17.993   0.005   0.003   0.000   0.000
 -17.959   0.005   0.003   0.000   0.000
 -17.925   0.005   0.003   0.000   0.000
 -17.891   0.005   0.003   0.000   0.000
 -17.857   0.005   0.003   0.000   0.000
 -17.823   0.005   0.003   0.000   0.000
 -17.789   0.005   0.003   0.000   0.000
 -17.755   0.004   0.003   0.000   0.000
 -17.721   0.004   0.003   0.000   0.000
 -17.687   0.004   0.003   0.000   0.000
 -17.653   0.004   0.003   0.000   0.000
 -17.619   0.004   0.003   0.000   0.000
 -17.585   0.004   0.003   0.000   0.000
 -17.551   0.004   0.003   0.000   0.000
 -17.517   0.004   0.003   0.000   0.000
 -17.483   0.004   0.003   0.000   0.000
 -17.449   0.004   0.003   0.000   0.000
 -17.415   0.004   0.003   0.000   0.000
 -17.381   0.004   0.004   0.000   0.000
 -17.347   0.004   0.004   0.000   0.000
 -17.313   0.004   0.004   0.000   0.000
 -17.279   0.004   0.004   0.000   0.000
 -17.245   0.004   0.004   0.000   0.000
 -17.211   0.004   0.004   0.000   0.000
 -17.177   0.004   0.004   0.000   0.000
 -17.143   0.004   0.004   0.000   0.000
 -17.109   0.004   0.004   0.000   0.000
 -17.075   0.004   0.004   0.000   0.000
 -17.041   0.004   0.004   0.000   0.000
 -17.007   0.004   0.004   0.000   0.000
 -16.973   0.004   0.004   0.000   0.000
 -16.939   0.003   0.004   0.000   0.000
 -16.905   0.003   0.004   0.000   0.000
 -16.871   0.003   0.004   0.000   0.000
 -16.837   0.003   0.004   0.000   0.000
 -16.803   0.003   0.004   0.000   0.000
 -16.769   0.003   0.004   0.000   0.000
 -16.735   0.003   0.004   0.000   0.000
 -16.701   0.003   0.004   0.000   0.000
 -16.667   0.003   0.004   0.000   0.000
 -16.633   0.003   0.004   0.000   0.000
 -16.599   0.003   0.004   0.000   0.000
 -16.565   0.003   0.004   0.000   0.000
 -16.531   0.003   0.004   0.000   0.000
 -16.496   0.003   0.004   0.000   0.000
 -16.462   0.003   0.004   0.000   0.000
 -16.428   0.003   0.004   0.000   0.000
 -16.394   0.003   0.004   0.000   0.000
 -16.360   0.003   0.004   0.000   0.000
 -16.326   0.003   0.004   0.000   0.000
 -16.292   0.003   0.004   0.000   0.000
 -16.258   0.003   0.004   0.000   0.000
 -16.224   0.003   0.004   0.000   0.000
 -16.190   0.003   0.004   0.000   0.000
 -16.156   0.003   0.004   0.000   0.000
 -16.122   0.003   0.004   0.000   0.000
 -16.088   0.003   0.004   0.000   0.000
 -16.054   0.003   0.004   0.000   0.000
 -16.020   0.003   0.005   0.000   0.000
 -15.986   0.003   0.005   0.000   0.000
 -15.952   0.003   0.005   0.000   0.000
 -15.918   0.003   0.005   0.000   0.000
 -15.884   0.003   0.005   0.000   0.000
 -15.850   0.003   0.005   0.000   0.000
 -15.816   0.003   0.005   0.000   0.000
 -15.782   0.003   0.005   0.000   0.000
 -15.748   0.003   0.005   0.000   0.000
 -15.714   0.003   0.005   0.000   0.000
 -15.680   0.003   0.005   0.000   0.000
 -15.646   0.002   0.005   0.000   0.000
 -15.612   0.002   0.005   0.000   0.000
 -15.578   0.002   0.005   0.000   0.000
 -15.544   0.002   0.005   0.000   0.000
 -15.510   0.002   0.005   0.000   0.000
 -15.476   0.002   0.005   0.000   0.000
 -15.442   0.002   0.005   0.000   0.000
 -15.408   0.002   0.005   0.000   0.000
 -15.374   0.002   0.005   0.000   0.000
 -15.340   0.002   0.005   0.000   0.000
 -15.306   0.002   0.005   0.000   0.000
 -15.272   0.002   0.005   0.000   0.000
 -15.238   0.002   0.005   0.000   0.000
 -15.204   0.002   0.005   0.000   0.000
 -15.170   0.002   0.005   0.000   0.000
 -15.136   0.002   0.005   0.000   0.000
 -15.102   0.002   0.005   0.000   0.000
 -15.068   0.002   0.005   0.000   0.000
 -15.034   0.002   0.006   0.000   0.000
 -15.000   0.002   0.006   0.000   0.000
 -14.966   0.002   0.006   0.000   0.000
 -14.932   0.002   0.006   0.000   0.000
 -14.898   0.002   0.006   0.000   0.000
 -14.864   0.002   0.006   0.000   0.000
 -14.830   0.002   0.006   0.000   0.000
 -14.796   0.002   0.006   0.000   0.000
 -14.762   0.002   0.006   0.000   0.000
 -14.728   0.002   0.006   0.000   0.000
 -14.694   0.002   0.006   0.000   0.000
 -14.660   0.002   0.006   0.000   0.000
 -14.626   0.002   0.006   0.000   0.000
 -14.592   0.002   0.006   0.000   0.000
 -14.558   0.002   0.006   0.000   0.000
 -14.524   0.002   0.006   0.000   0.000
 -14.490   0.002   0.006   0.000   0.000
 -14.456   0.002   0.006   0.000   0.000
 -14.422   0.002   0.006   0.000   0.000
 -14.388   0.002   0.006   0.000   0.000
 -14.354   0.002   0.006   0.000   0.000
 -14.320   0.002   0.007   0.000   0.000
 -14.286   0.002   0.007   0.000   0.000
 -14.252   0.002   0.007   0.000   0.000
 -14.218   0.002   0.007   0.000   0.000
 -14.184   0.002   0.007   0.000   0.000
 -14.150   0.002   0.007   0.000   0.000
 -14.116   0.002   0.007   0.000   0.000
 -14.082   0.002   0.007   0.000   0.000
 -14.048   0.002   0.007   0.000   0.000
 -14.014   0.002   0.007   0.000   0.000
 -13.979   0.002   0.007   0.000   0.000
 -13.945   0.002   0.007   0.000   0.000
 -13.911   0.002   0.007   0.000   0.000
 -13.877   0.002   0.007   0.000   0.000
 -13.843   0.002   0.007   0.000   0.000
 -13.809   0.002   0.007   0.000   0.000
 -13.775   0.002   0.007   0.000   0.000
 -13.741   0.002   0.008   0.000   0.000
 -13.707   0.002   0.008   0.000   0.000
 -13.673   0.002   0.008   0.000   0.000
 -13.639   0.002   0.008   0.000   0.000
 -13.605   0.002   0.008   0.000   0.000
 -13.571   0.002   0.008   0.000   0.000
 -13.537   0.002   0.008   0.000   0.000
 -13.503   0.002   0.008   0.000   0.000
 -13.469   0.002   0.008   0.000   0.000
 -13.435   0.002   0.008   0.000   0.000
 -13.401   0.002   0.008   0.000   0.000
 -13.367   0.002   0.008   0.000   0.000
 -13.333   0.002   0.008   0.000   0.000
 -13.299   0.002   0.009   0.000   0.000
 -13.265   0.002   0.009   0.000   0.000
 -13.231   0.002   0.009   0.000   0.000
 -13.197   0.002   0.009   0.000   0.000
 -13.163   0.002   0.009   0.000   0.000
 -13.129   0.001   0.009   0.000   0.000
 -13.095   0.001   0.009   0.000   0.000
 -13.061   0.001   0.009   0.000   0.000
 -13.027   0.001   0.009   0.000   0.000
 -12.993   0.001   0.009   0.000   0.000
 -12.959   0.001   0.009   0.000   0.000
 -12.925   0.001   0.009   0.000   0.000
 -12.891   0.001   0.010   0.000   0.000
 -12.857   0.001   0.010   0.000   0.000
 -12.823   0.001   0.010   0.000   0.000
 -12.789   0.001   0.010   0.000   0.000
 -12.755   0.001   0.010   0.000   0.000
 -12.721   0.001   0.010   0.000   0.000
 -12.687   0.001   0.010   0.000   0.000
 -12.653   0.001   0.010   0.000   0.000
 -12.619   0.001   0.010   0.000   0.000
 -12.585   0.001   0.011   0.000   0.000
 -12.551   0.001   0.011   0.000   0.000
 -12.517   0.001   0.011   0.000   0.000
 -12.483   0.001   0.011   0.000   0.000
 -12.449   0.001   0.011   0.000   0.000
 -12.415   0.001   0.011   0.000   0.000
 -12.381   0.001   0.011   0.000   0.000
 -12.347   0.001   0.011   0.000   0.000
 -12.313   0.001   0.011   0.000   0.000
 -12.279   0.001   0.012   0.000   0.000
 -12.245   0.001   0.012   0.000   0.000
 -12.211   0.001   0.012   0.000   0.000
 -12.177   0.001   0.012   0.000   0.000
 -12.143   0.001   0.012   0.000   0.000
 -12.109   0.001   0.012   0.000   0.000
 -12.075   0.001   0.012   0.000   0.000
 -12.041   0.001   0.013   0.000   0.000
 -12.007   0.001   0.013   0.000   0.000
 -11.973   0.001   0.013   0.000   0.000
 -11.939   0.001   0.013   0.000   0.000
 -11.905   0.001   0.013   0.000   0.000
 -11.871   0.001   0.013   0.000   0.000
 -11.837   0.001   0.013   0.000   0.000
 -11.803   0.001   0.014   0.000   0.000
 -11.769   0.001   0.014   0.000   0.000
 -11.735   0.001   0.014   0.000   0.000
 -11.701   0.001   0.014   0.000   0.000
 -11.667   0.001   0.014   0.000   0.000
 -11.633   0.001   0.015   0.000   0.000
 -11.599   0.001   0.015   0.000   0.000
 -11.565   0.001   0.015   0.000   0.000
 -11.531   0.001   0.015   0.000   0.000
 -11.497   0.001   0.015   0.000   0.000
 -11.463   0.001   0.016   0.000   0.000
 -11.428   0.001   0.016   0.000   0.000
 -11.394   0.001   0.016   0.000   0.000
 -11.360   0.001   0.016   0.000   0.000
 -11.326   0.001   0.016   0.000   0.000
 -11.292   0.001   0.017   0.000   0.000
 -11.258   0.001   0.017   0.000   0.000
 -11.224   0.001   0.017   0.000   0.000
 -11.190   0.001   0.017   0.000   0.000
 -11.156   0.001   0.018   0.000   0.000
 -11.122   0.001   0.018   0.000   0.000
 -11.088   0.001   0.018   0.000   0.000
 -11.054   0.001   0.018   0.000   0.000
 -11.020   0.001   0.019   0.000   0.000
 -10.986   0.001   0.019   0.000   0.000
 -10.952   0.001   0.019   0.000   0.000
 -10.918   0.001   0.019   0.000   0.000
 -10.884   0.001   0.020   0.000   0.000
 -10.850   0.001   0.020   0.000   0.000
 -10.816   0.001   0.020   0.000   0.000
 -10.782   0.001   0.021   0.000   0.000
 -10.748   0.001   0.021   0.000   0.000
 -10.714   0.001   0.021   0.000   0.000
 -10.680   0.001   0.022   0.000   0.000
 -10.646   0.001   0.022   0.000   0.000
 -10.612   0.001   0.022   0.000   0.000
 -10.578   0.001   0.023   0.000   0.000
 -10.544   0.001   0.023   0.000   0.000
 -10.510   0.001   0.023   0.000   0.000
 -10.476   0.001   0.024   0.000   0.000
 -10.442   0.001   0.024   0.000   0.000
 -10.408   0.001   0.025   0.000   0.000
 -10.374   0.001   0.025   0.000   0.000
 -10.340   0.001   0.025   0.000   0.000
 -10.306   0.001   0.026   0.000   0.000
 -10.272   0.001   0.026   0.000   0.000
 -10.238   0.001   0.027   0.000   0.000
 -10.204   0.001   0.027   0.000   0.000
 -10.170   0.001   0.028   0.000   0.000
 -10.136   0.001   0.028   0.000   0.000
 -10.102   0.001   0.029   0.000   0.000
 -10.068   0.001   0.029   0.000   0.000
 -10.034   0.001   0.030   0.000   0.000
 -10.000   0.001   0.031   0.000   0.000
  -9.966   0.001   0.031   0.000   0.000
  -9.932   0.001   0.032   0.000   0.000
  -9.898   0.001   0.032   0.000   0.000
  -9.864   0.001   0.033   0.000   0.000
  -9.830   0.001   0.034   0.000   0.000
  -9.796   0.001   0.035   0.000   0.000
  -9.762   0.001   0.035   0.000   0.000
  -9.728   0.001   0.036   0.000   0.000
  -9.694   0.001   0.037   0.000   0.000
  -9.660   0.001   0.038   0.000   0.000
  -9.626   0.001   0.038   0.000   0.000
  -9.592   0.001   0.039   0.000   0.000
  -9.558   0.001   0.040   0.000   0.000
  -9.524   0.001   0.041   0.000   0.000
  -9.490   0.001   0.042   0.000   0.000
  -9.456   0.001   0.043   0.000   0.000
  -9.422   0.001   0.044   0.000   0.000
  -9.388   0.001   0.045   0.000   0.000
  -9.354   0.001   0.046   0.000   0.000
  -9.320   0.001   0.048   0.000   0.000
  -9.286   0.001   0.049   0.000   0.000
  -9.252   0.001   0.050   0.000   0.000
  -9.218   0.001   0.051   0.000   0.000
  -9.184   0.001   0.053   0.000   0.000
  -9.150   0.001   0.054   0.000   0.000
  -9.116   0.001   0.056   0.000   0.000
  -9.082   0.001   0.057   0.000   0.000
  -9.048   0.001   0.059   0.000   0.000
  -9.014   0.001   0.061   0.000   0.000
  -8.980   0.001   0.063   0.000   0.000
  -8.946   0.001   0.065   0.000   0.000
  -8.912   0.001   0.067   0.000   0.000
  -8.877   0.001   0.069   0.000   0.000
  -8.843   0.001   0.071   0.000   0.000
  -8.809   0.001   0.074   0.000   0.000
  -8.775   0.001   0.076   0.000   0.000
  -8.741   0.001   0.079   0.000   0.000
  -8.707   0.001   0.082   0.000   0.000
  -8.673   0.001   0.085   0.000   0.000
  -8.639   0.001   0.089   0.000   0.000
  -8.605   0.001   0.092   0.000   0.000
  -8.571   0.001   0.096   0.000   0.000
  -8.537   0.001   0.100   0.000   0.000
  -8.503   0.001   0.105   0.000   0.000
  -8.469   0.001   0.110   0.000   0.000
  -8.435   0.001   0.115   0.000   0.000
  -8.401   0.001   0.121   0.000   0.000
  -8.367   0.001   0.127   0.000   0.000
  -8.333   0.001   0.134   0.000   0.000
  -8.299   0.001   0.142   0.000   0.000
  -8.265   0.001   0.150   0.000   0.000
  -8.231   0.001   0.160   0.000   0.000
  -8.197   0.001   0.170   0.000   0.000
  -8.163   0.001   0.182   0.000   0.000
  -8.129   0.001   0.194   0.000   0.000
  -8.095   0.001   0.208   0.000   0.000
  -8.061   0.001   0.223   0.000   0.000
  -8.027   0.001   0.240   0.000   0.000
  -7.993   0.001   0.256   0.000   0.000
  -7.959   0.001   0.273   0.000   0.000
  -7.925   0.001   0.289   0.000   0.000
  -7.891   0.001   0.304   0.000   0.000
  -7.857   0.001   0.319   0.000   0.000
  -7.823   0.001   0.334   0.001   0.000
  -7.789   0.001   0.349   0.001   0.000
  -7.755   0.001   0.367   0.001   0.000
  -7.721   0.002   0.387   0.001   0.000
  -7.687   0.002   0.412   0.001   0.000
  -7.653   0.002   0.440   0.001   0.000
  -7.619   0.002   0.475   0.001   0.000
  -7.585   0.002   0.515   0.001   0.000
  -7.551   0.002   0.562   0.001   0.000
  -7.517   0.002   0.616   0.001   0.000
  -7.483   0.002   0.676   0.001   0.000
  -7.449   0.002   0.742   0.001   0.000
  -7.415   0.003   0.813   0.001   0.000
  -7.381   0.003   0.885   0.001   0.000
  -7.347   0.003   0.956   0.001   0.000
  -7.313   0.003   1.020   0.001   0.000
  -7.279   0.003   1.074   0.001   0.000
  -7.245   0.004   1.113   0.001   0.000
  -7.211   0.004   1.136   0.001   0.000
  -7.177   0.004   1.143   0.001   0.000
  -7.143   0.004   1.140   0.001   0.000
  -7.109   0.004   1.131   0.001   0.000
  -7.075   0.004   1.121   0.001   0.000
  -7.041   0.004   1.113   0.001   0.000
  -7.007   0.004   1.107   0.001   0.000
  -6.973   0.004   1.103   0.001   0.000
  -6.939   0.004   1.099   0.001   0.000
  -6.905   0.004   1.094   0.001   0.000
  -6.871   0.004   1.088   0.001   0.000
  -6.837   0.004   1.083   0.001   0.000
  -6.803   0.004   1.079   0.001   0.000
  -6.769   0.005   1.076   0.001   0.000
  -6.735   0.005   1.073   0.001   0.000
  -6.701   0.005   1.068   0.001   0.000
  -6.667   0.005   1.061   0.001   0.000
  -6.633   0.005   1.054   0.001   0.000
  -6.599   0.005   1.049   0.001   0.000
  -6.565   0.005   1.049   0.001   0.000
  -6.531   0.005   1.058   0.001   0.000
  -6.497   0.005   1.079   0.001   0.000
  -6.463   0.005   1.112   0.001   0.000
  -6.429   0.006   1.160   0.002   0.000
  -6.395   0.006   1.222   0.002   0.000
  -6.361   0.006   1.295   0.002   0.000
  -6.326   0.006   1.378   0.002   0.000
  -6.292   0.007   1.465   0.002   0.000
  -6.258   0.007   1.552   0.002   0.000
  -6.224   0.007   1.633   0.002   0.000
  -6.190   0.007   1.703   0.002   0.000
  -6.156   0.007   1.759   0.003   0.000
  -6.122   0.006   1.801   0.003   0.000
  -6.088   0.006   1.828   0.003   0.000
  -6.054   0.006   1.841   0.003   0.000
  -6.020   0.005   1.840   0.003   0.000
  -5.986   0.005   1.823   0.003   0.000
  -5.952   0.005   1.794   0.002   0.000
  -5.918   0.004   1.755   0.002   0.000
  -5.884   0.004   1.714   0.002   0.000
  -5.850   0.004   1.673   0.002   0.000
  -5.816   0.003   1.639   0.002   0.000
  -5.782   0.003   1.615   0.002   0.000
  -5.748   0.003   1.604   0.002   0.000
  -5.714   0.003   1.607   0.002   0.000
  -5.680   0.002   1.624   0.002   0.000
  -5.646   0.002   1.655   0.002   0.000
  -5.612   0.002   1.697   0.002   0.000
  -5.578   0.002   1.748   0.002   0.000
  -5.544   0.002   1.801   0.002   0.000
  -5.510   0.002   1.852   0.001   0.000
  -5.476   0.002   1.895   0.001   0.001
  -5.442   0.002   1.923   0.001   0.001
  -5.408   0.001   1.933   0.001   0.001
  -5.374   0.001   1.926   0.001   0.001
  -5.340   0.001   1.906   0.001   0.000
  -5.306   0.001   1.877   0.001   0.000
  -5.272   0.001   1.845   0.001   0.000
  -5.238   0.001   1.818   0.001   0.000
  -5.204   0.001   1.800   0.001   0.000
  -5.170   0.001   1.791   0.001   0.000
  -5.136   0.001   1.790   0.001   0.000
  -5.102   0.001   1.792   0.001   0.000
  -5.068   0.001   1.791   0.001   0.000
  -5.034   0.001   1.777   0.001   0.000
  -5.000   0.001   1.748   0.001   0.000
  -4.966   0.001   1.698   0.001   0.000
  -4.932   0.001   1.629   0.001   0.000
  -4.898   0.001   1.541   0.001   0.000
  -4.864   0.001   1.440   0.001   0.000
  -4.830   0.001   1.330   0.001   0.000
  -4.796   0.001   1.217   0.001   0.000
  -4.762   0.001   1.106   0.001   0.000
  -4.728   0.001   1.000   0.001   0.000
  -4.694   0.001   0.901   0.001   0.000
  -4.660   0.001   0.812   0.001   0.000
  -4.626   0.001   0.732   0.001   0.000
  -4.592   0.001   0.661   0.001   0.000
  -4.558   0.001   0.599   0.001   0.000
  -4.524   0.001   0.544   0.001   0.000
  -4.490   0.001   0.496   0.001   0.000
  -4.456   0.001   0.454   0.001   0.000
  -4.422   0.001   0.417   0.001   0.000
  -4.388   0.001   0.385   0.001   0.000
  -4.354   0.001   0.356   0.001   0.000
  -4.320   0.001   0.330   0.001   0.000
  -4.286   0.001   0.307   0.001   0.000
  -4.252   0.001   0.287   0.001   0.000
  -4.218   0.001   0.268   0.001   0.000
  -4.184   0.001   0.251   0.001   0.000
  -4.150   0.001   0.236   0.001   0.000
  -4.116   0.001   0.223   0.000   0.000
  -4.082   0.001   0.210   0.000   0.000
  -4.048   0.001   0.199   0.000   0.000
  -4.014   0.001   0.188   0.000   0.000
  -3.980   0.001   0.179   0.000   0.000
  -3.946   0.001   0.170   0.000   0.000
  -3.912   0.001   0.162   0.000   0.000
  -3.878   0.001   0.154   0.000   0.000
  -3.844   0.001   0.147   0.000   0.000
  -3.809   0.001   0.141   0.000   0.000
  -3.775   0.001   0.135   0.000   0.000
  -3.741   0.001   0.129   0.000   0.000
  -3.707   0.001   0.124   0.000   0.000
  -3.673   0.001   0.119   0.000   0.000
  -3.639   0.001   0.114   0.000   0.000
  -3.605   0.001   0.110   0.000   0.000
  -3.571   0.001   0.106   0.000   0.000
  -3.537   0.001   0.102   0.000   0.000
  -3.503   0.001   0.098   0.000   0.000
  -3.469   0.001   0.095   0.000   0.000
  -3.435   0.001   0.091   0.000   0.000
  -3.401   0.001   0.088   0.000   0.000
  -3.367   0.001   0.085   0.000   0.000
  -3.333   0.001   0.083   0.000   0.000
  -3.299   0.001   0.080   0.000   0.000
  -3.265   0.001   0.078   0.000   0.000
  -3.231   0.001   0.075   0.000   0.000
  -3.197   0.001   0.073   0.000   0.000
  -3.163   0.001   0.071   0.000   0.000
  -3.129   0.001   0.069   0.000   0.000
  -3.095   0.001   0.067   0.000   0.000
  -3.061   0.001   0.065   0.000   0.000
  -3.027   0.001   0.063   0.000   0.000
  -2.993   0.001   0.061   0.000   0.000
  -2.959   0.001   0.060   0.000   0.000
  -2.925   0.001   0.058   0.000   0.000
  -2.891   0.001   0.057   0.000   0.000
  -2.857   0.001   0.055   0.000   0.000
  -2.823   0.001   0.054   0.000   0.000
  -2.789   0.001   0.052   0.000   0.000
  -2.755   0.001   0.051   0.000   0.000
  -2.721   0.001   0.050   0.000   0.000
  -2.687   0.001   0.049   0.000   0.000
  -2.653   0.001   0.048   0.000   0.000
  -2.619   0.001   0.046   0.000   0.000
  -2.585   0.001   0.045   0.000   0.000
  -2.551   0.001   0.044   0.000   0.000
  -2.517   0.001   0.043   0.000   0.000
  -2.483   0.001   0.042   0.000   0.000
  -2.449   0.001   0.041   0.000   0.000
  -2.415   0.001   0.041   0.000   0.000
  -2.381   0.001   0.040   0.000   0.000