 -27.211   0.000   0.000   0.000   0.000
 -27.177   0.000   0.000   0.000   0.000
 -27.143   0.000   0.000   0.000   0.000
 -27.109   0.000   0.000   0.000   0.000
 -27.075   0.000   0.000   0.000   0.000
 -27.041   0.000   0.000   0.000   0.000
 -27.007   0.000   0.000   0.000   0.000
 -26.973   0.000   0.000   0.000   0.000
 -26.939   0.000   0.000   0.000   0.000
 -26.905   0.000   0.000   0.000   0.000
 -26.871   0.000   0.000   0.000   0.000
 -26.837   0.000   0.000   0.000   0.000
 -26.803   0.000   0.000   0.000   0.000
 -26.769   0.000   0.000   0.000   0.000
 -26.735   0.000   0.000   0.000   0.000
 -26.700   0.000   0.000   0.000   0.000
 -26.666   0.000   0.000   0.000   0.000
 -26.632   0.000   0.000   0.000   0.000
 -26.598   0.000   0.000   0.000   0.000
 -26.564   0.000   0.000   0.000   0.000
 -26.530   0.000   0.000   0.000   0.000
 -26.496   0.000   0.000   0.000   0.000
 -26.462   0.000   0.000   0.000   0.000
 -26.428   0.000   0.000   0.000   0.000
 -26.394   0.000   0.000   0.000   0.000
 -26.360   0.000   0.000   0.000   0.000
 -26.326   0.000   0.000   0.000   0.000
 -26.292   0.000   0.000   0.000   0.000
 -26.258   0.000   0.000   0.000   0.000
 -26.224   0.000   0.000   0.000   0.000
 -26.190   0.000   0.000   0.000   0.000
 -26.156   0.000   0.000   0.000   0.000
 -26.122   0.000   0.000   0.000   0.000
 -26.088   0.000   0.000   0.000   0.000
 -26.054   0.000   0.000   0.000   0.000
 -26.020   0.000   0.000   0.000   0.000
 -25.986   0.000   0.000   0.000   0.000
 -25.952   0.000   0.000   0.000   0.000
 -25.918   0.000   0.000   0.000   0.000
 -25.884   0.000   0.000   0.000   0.000
 -25.850   0.000   0.000   0.000   0.000
 -25.816   0.000   0.000   0.000   0.000
 -25.782   0.000   0.000   0.000   0.000
 -25.748   0.000   0.000   0.000   0.000
 -25.714   0.000   0.000   0.000   0.000
 -25.680   0.000   0.000   0.000   0.000
 -25.646   0.000   0.000   0.000   0.000
 -25.612   0.000   0.000   0.000   0.000
 -25.578   0.000   0.000   0.000   0.000
 -25.544   0.000   0.000   0.000   0.000
 -25.510   0.000   0.000   0.000   0.000
 -25.476   0.000   0.000   0.000   0.000
 -25.442   0.000   0.000   0.000   0.000
 -25.408   0.000   0.000   0.000   0.000
 -25.374   0.000   0.000   0.000   0.000
 -25.340   0.000   0.000   0.000   0.000
 -25.306   0.000   0.000   0.000   0.000
 -25.272   0.000   0.000   0.000   0.000
 -25.238   0.000   0.000   0.000   0.000
 -25.204   0.000   0.000   0.000   0.000
 -25.170   0.000   0.000   0.000   0.000
 -25.136   0.000   0.000   0.000   0.000
 -25.102   0.000   0.000   0.000   0.000
 -25.068   0.000   0.000   0.000   0.000
 -25.034   0.000   0.000   0.000   0.000
 -25.000   0.000   0.000   0.000   0.000
 -24.966   0.000   0.000   0.000   0.000
 -24.932   0.000   0.000   0.000   0.000
 -24.898   0.000   0.000   0.000   0.000
 -24.864   0.000   0.000   0.000   0.000
 -24.830   0.000   0.000   0.000   0.000
 -24.796   0.000   0.000   0.000   0.000
 -24.762   0.000   0.000   0.000   0.000
 -24.728   0.000   0.000   0.000   0.000
 -24.694   0.000   0.000   0.000   0.000
 -24.660   0.000   0.000   0.000   0.000
 -24.626   0.000   0.000   0.000   0.000
 -24.592   0.000   0.000   0.000   0.000
 -24.558   0.000   0.000   0.000   0.000
 -24.524   0.000   0.000   0.000   0.000
 -24.490   0.000   0.000   0.000   0.000
 -24.456   0.000   0.000   0.000   0.000
 -24.422   0.000   0.000   0.000   0.000
 -24.388   0.000   0.000   0.000   0.000
 -24.354   0.000   0.000   0.000   0.000
 -24.320   0.000   0.000   0.000   0.000
 -24.286   0.000   0.000   0.000   0.000
 -24.252   0.000   0.000   0.000   0.000
 -24.218   0.000   0.000   0.000   0.000
 -24.184   0.000   0.000   0.000   0.000
 -24.149   0.000   0.000   0.000   0.000
 -24.115   0.000   0.000   0.000   0.000
 -24.081   0.000   0.000   0.000   0.000
 -24.047   0.000   0.000   0.000   0.000
 -24.013   0.000   0.000   0.000   0.000
 -23.979   0.000   0.000   0.000   0.000
 -23.945   0.000   0.000   0.000   0.000
 -23.911   0.000   0.000   0.000   0.000
 -23.877   0.000   0.000   0.000   0.000
 -23.843   0.000   0.000   0.000   0.000
 -23.809   0.000   0.000   0.000   0.000
 -23.775   0.000   0.000   0.000   0.000
 -23.741   0.000   0.000   0.000   0.000
 -23.707   0.000   0.000   0.000   0.000
 -23.673   0.000   0.000   0.000   0.000
 -23.639   0.000   0.000   0.000   0.000
 -23.605   0.000   0.000   0.000   0.000
 -23.571   0.000   0.000   0.000   0.000
 -23.537   0.000   0.000   0.000   0.000
 -23.503   0.000   0.000   0.000   0.000
 -23.469   0.000   0.000   0.000   0.000
 -23.435   0.000   0.000   0.000   0.000
 -23.401   0.000   0.000   0.000   0.000
 -23.367   0.000   0.000   0.000   0.000
 -23.333   0.000   0.000   0.000   0.000
 -23.299   0.000   0.000   0.000   0.000
 -23.265   0.000   0.000   0.000   0.000
 -23.231   0.000   0.000   0.000   0.000
 -23.197   0.000   0.000   0.000   0.000
 -23.163   0.000   0.000   0.000   0.000
 -23.129   0.000   0.000   0.000   0.000
 -23.095   0.000   0.000   0.000   0.000
 -23.061   0.000   0.000   0.000   0.000
 -23.027   0.000   0.000   0.000   0.000
 -22.993   0.000   0.000   0.000   0.000
 -22.959   0.000   0.000   0.000   0.000
 -22.925   0.000   0.000   0.000   0.000
 -22.891   0.000   0.000   0.000   0.000
 -22.857   0.000   0.000   0.000   0.000
 -22.823   0.000   0.000   0.000   0.000
 -22.789   0.000   0.000   0.000   0.000
 -22.755   0.000   0.000   0.000   0.000
 -22.721   0.000   0.000   0.000   0.000
 -22.687   0.000   0.000   0.000   0.000
 -22.653   0.000   0.000   0.000   0.000
 -22.619   0.000   0.000   0.000   0.000
 -22.585   0.000   0.000   0.000   0.000
 -22.551   0.000   0.000   0.000   0.000
 -22.517   0.000   0.000   0.000   0.000
 -22.483   0.000   0.000   0.000   0.000
 -22.449   0.000   0.000   0.000   0.000
 -22.415   0.000   0.000   0.000   0.000
 -22.381   0.000   0.000   0.000   0.000
 -22.347   0.000   0.000   0.000   0.000
 -22.313   0.000   0.000   0.000   0.000
 -22.279   0.000   0.000   0.000   0.000
 -22.245   0.000   0.000   0.000   0.000
 -22.211   0.000   0.000   0.000   0.000
 -22.177   0.000   0.000   0.000   0.000
 -22.143   0.000   0.000   0.000   0.000
 -22.109   0.000   0.000   0.000   0.000
 -22.075   0.000   0.000   0.000   0.000
 -22.041   0.000   0.000   0.000   0.000
 -22.007   0.000   0.000   0.000   0.000
 -21.973   0.000   0.000   0.000   0.000
 -21.939   0.000   0.000   0.000   0.000
 -21.905   0.000   0.000   0.000   0.000
 -21.871   0.000   0.000   0.000   0.000
 -21.837   0.000   0.000   0.000   0.000
 -21.803   0.000   0.000   0.000   0.000
 -21.769   0.000   0.000   0.000   0.000
 -21.735   0.000   0.000   0.000   0.000
 -21.701   0.000   0.000   0.000   0.000
 -21.667   0.000   0.000   0.000   0.000
 -21.633   0.000   0.000   0.000   0.000
 -21.598   0.000   0.000   0.000   0.000
 -21.564   0.000   0.000   0.000   0.000
 -21.530   0.000   0.000   0.000   0.000
 -21.496   0.000   0.000   0.000   0.000
 -21.462   0.000   0.000   0.000   0.000
 -21.428   0.000   0.000   0.000   0.000
 -21.394   0.000   0.000   0.000   0.000
 -21.360   0.000   0.000   0.000   0.000
 -21.326   0.000   0.000   0.000   0.000
 -21.292   0.000   0.000   0.000   0.000
 -21.258   0.000   0.000   0.000   0.000
 -21.224   0.000   0.000   0.000   0.000
 -21.190   0.000   0.000   0.000   0.000
 -21.156   0.000   0.000   0.000   0.000
 -21.122   0.000   0.000   0.000   0.000
 -21.088   0.000   0.000   0.000   0.000
 -21.054   0.000   0.000   0.000   0.000
 -21.020   0.000   0.000   0.000   0.000
 -20.986   0.000   0.000   0.000   0.000
 -20.952   0.000   0.000   0.000   0.000
 -20.918   0.000   0.000   0.000   0.000
 -20.884   0.000   0.000   0.000   0.000
 -20.850   0.000   0.000   0.000   0.000
 -20.816   0.000   0.000   0.000   0.000
 -20.782   0.000   0.000   0.000   0.000
 -20.748   0.000   0.000   0.000   0.000
 -20.714   0.000   0.000   0.000   0.000
 -20.680   0.000   0.000   0.000   0.000
 -20.646   0.000   0.000   0.000   0.000
 -20.612   0.000   0.000   0.000   0.000
 -20.578   0.000   0.000   0.000   0.000
 -20.544   0.000   0.000   0.000   0.000
 -20.510   0.000   0.000   0.000   0.000
 -20.476   0.000   0.000   0.000   0.000
 -20.442   0.000   0.000   0.000   0.000
 -20.408   0.000   0.000   0.000   0.000
 -20.374   0.000   0.000   0.000   0.000
 -20.340   0.000   0.000   0.000   0.000
 -20.306   0.000   0.000   0.000   0.000
 -20.272   0.000   0.000   0.000   0.000
 -20.238   0.000   0.000   0.000   0.000
 -20.204   0.000   0.000   0.000   0.000
 -20.170   0.000   0.000   0.000   0.000
 -20.136   0.000   0.000   0.000   0.000
 -20.102   0.000   0.000   0.000   0.000
 -20.068   0.000   0.000   0.000   0.000
 -20.034   0.000   0.000   0.000   0.000
 -20.000   0.000   0.000   0.000   0.000
 -19.966   0.000   0.000   0.000   0.000
 -19.932   0.000   0.000   0.000   0.000
 -19.898   0.000   0.000   0.000   0.000
 -19.864   0.000   0.000   0.000   0.000
 -19.830   0.000   0.000   0.000   0.000
 -19.796   0.000   0.000   0.000   0.000
 -19.762   0.000   0.000   0.000   0.000
 -19.728   0.000   0.000   0.000   0.000
 -19.694   0.000   0.000   0.000   0.000
 -19.660   0.000   0.000   0.000   0.000
 -19.626   0.000   0.000   0.000   0.000
 -19.592   0.000   0.000   0.000   0.000
 -19.558   0.000   0.000   0.000   0.000
 -19.524   0.000   0.000   0.000   0.000
 -19.490   0.000   0.000   0.000   0.000
 -19.456   0.000   0.000   0.000   0.000
 -19.422   0.000   0.000   0.000   0.000
 -19.388   0.000   0.000   0.000   0.000
 -19.354   0.000   0.000   0.000   0.000
 -19.320   0.000   0.000   0.000   0.000
 -19.286   0.000   0.000   0.000   0.000
 -19.252   0.000   0.000   0.000   0.000
 -19.218   0.000   0.000   0.000   0.000
 -19.184   0.000   0.000   0.000   0.000
 -19.150   0.000   0.000   0.000   0.000
 -19.116   0.000   0.000   0.000   0.000
 -19.082   0.000   0.000   0.000   0.000
 -19.047   0.000   0.000   0.000   0.000
 -19.013   0.000   0.000   0.000   0.000
 -18.979   0.000   0.000   0.000   0.000
 -18.945   0.000   0.000   0.000   0.000
 -18.911   0.000   0.000   0.000   0.000
 -18.877   0.000   0.000   0.000   0.000
 -18.843   0.000   0.000   0.000   0.000
 -18.809   0.000   0.000   0.000   0.000
 -18.775   0.000   0.000   0.000   0.000
 -18.741   0.000   0.000   0.000   0.000
 -18.707   0.000   0.000   0.000   0.000
 -18.673   0.000   0.000   0.000   0.000
 -18.639   0.000   0.000   0.000   0.000
 -18.605   0.000   0.000   0.000   0.000
 -18.571   0.000   0.000   0.000   0.000
 -18.537   0.000   0.000   0.000   0.000
 -18.503   0.000   0.000   0.000   0.000
 -18.469   0.000   0.000   0.000   0.000
 -18.435   0.000   0.000   0.000   0.000
 -18.401   0.000   0.000   0.000   0.000
 -18.367   0.000   0.000   0.000   0.000
 -18.333   0.000   0.000   0.000   0.000
 -18.299   0.000   0.000   0.000   0.000
 -18.265   0.000   0.000   0.000   0.000
 -18.231   0.000   0.000   0.000   0.000
 -18.197   0.000   0.000   0.000   0.000
 -18.163   0.000   0.000   0.000   0.000
 -18.129   0.000   0.000   0.000   0.000
 -18.095   0.000   0.000   0.000   0.000
 -18.061   0.000   0.000   0.000   0.000
 -18.027   0.000   0.000   0.000   0.000
 -17.993   0.000   0.000   0.000   0.000
 -17.959   0.000   0.000   0.000   0.000
 -17.925   0.000   0.000   0.000   0.000
 -17.891   0.000   0.000   0.000   0.000
 -17.857   0.000   0.000   0.000   0.000
 -17.823   0.000   0.000   0.000   0.000
 -17.789   0.000   0.000   0.000   0.000
 -17.755   0.000   0.000   0.000   0.000
 -17.721   0.000   0.000   0.000   0.000
 -17.687   0.000   0.000   0.000   0.000
 -17.653   0.000   0.000   0.000   0.000
 -17.619   0.000   0.000   0.000   0.000
 -17.585   0.000   0.000   0.000   0.000
 -17.551   0.000   0.000   0.000   0.000
 -17.517   0.000   0.000   0.000   0.000
 -17.483   0.000   0.000   0.000   0.000
 -17.449   0.000   0.000   0.000   0.000
 -17.415   0.000   0.000   0.000   0.000
 -17.381   0.000   0.000   0.000   0.000
 -17.347   0.000   0.000   0.000   0.000
 -17.313   0.000   0.000   0.000   0.000
 -17.279   0.000   0.000   0.000   0.000
 -17.245   0.000   0.000   0.000   0.000
 -17.211   0.000   0.000   0.000   0.000
 -17.177   0.000   0.000   0.000   0.000
 -17.143   0.000   0.000   0.000   0.000
 -17.109   0.000   0.000   0.000   0.000
 -17.075   0.000   0.000   0.000   0.000
 -17.041   0.000   0.000   0.000   0.000
 -17.007   0.000   0.000   0.000   0.000
 -16.973   0.000   0.000   0.000   0.000
 -16.939   0.000   0.000   0.000   0.000
 -16.905   0.000   0.000   0.000   0.000
 -16.871   0.000   0.000   0.000   0.000
 -16.837   0.000   0.000   0.000   0.000
 -16.803   0.000   0.000   0.000   0.000
 -16.769   0.000   0.000   0.000   0.000
 -16.735   0.000   0.000   0.000   0.000
 -16.701   0.000   0.000   0.000   0.000
 -16.667   0.000   0.000   0.000   0.000
 -16.633   0.000   0.000   0.000   0.000
 -16.599   0.000   0.000   0.000   0.000
 -16.565   0.000   0.000   0.000   0.000
 -16.531   0.000   0.000   0.000   0.000
 -16.496   0.000   0.000   0.000   0.000
 -16.462   0.000   0.001   0.000   0.000
 -16.428   0.000   0.001   0.000   0.000
 -16.394   0.000   0.001   0.000   0.000
 -16.360   0.000   0.001   0.000   0.000
 -16.326   0.000   0.001   0.000   0.000
 -16.292   0.000   0.001   0.000   0.000
 -16.258   0.000   0.001   0.000   0.000
 -16.224   0.000   0.001   0.000   0.000
 -16.190   0.000   0.001   0.000   0.000
 -16.156   0.000   0.001   0.000   0.000
 -16.122   0.000   0.001   0.000   0.000
 -16.088   0.000   0.001   0.000   0.000
 -16.054   0.000   0.001   0.000   0.000
 -16.020   0.000   0.001   0.000   0.000
 -15.986   0.000   0.001   0.000   0.000
 -15.952   0.000   0.001   0.000   0.000
 -15.918   0.000   0.001   0.000   0.000
 -15.884   0.000   0.001   0.000   0.000
 -15.850   0.000   0.001   0.000   0.000
 -15.816   0.000   0.001   0.000   0.000
 -15.782   0.000   0.001   0.000   0.000
 -15.748   0.000   0.001   0.000   0.000
 -15.714   0.000   0.001   0.000   0.000
 -15.680   0.000   0.001   0.000   0.000
 -15.646   0.000   0.001   0.000   0.000
 -15.612   0.000   0.001   0.000   0.000
 -15.578   0.000   0.001   0.000   0.000
 -15.544   0.000   0.001   0.000   0.000
 -15.510   0.000   0.001   0.000   0.000
 -15.476   0.000   0.001   0.000   0.000
 -15.442   0.000   0.001   0.000   0.000
 -15.408   0.000   0.001   0.000   0.000
 -15.374   0.000   0.001   0.000   0.000
 -15.340   0.000   0.001   0.000   0.000
 -15.306   0.000   0.001   0.000   0.000
 -15.272   0.000   0.001   0.000   0.000
 -15.238   0.000   0.001   0.000   0.000
 -15.204   0.000   0.001   0.000   0.000
 -15.170   0.000   0.001   0.000   0.000
 -15.136   0.000   0.001   0.000   0.000
 -15.102   0.000   0.001   0.000   0.000
 -15.068   0.000   0.001   0.000   0.000
 -15.034   0.000   0.001   0.000   0.000
 -15.000   0.000   0.001   0.000   0.000
 -14.966   0.000   0.001   0.000   0.000
 -14.932   0.000   0.001   0.000   0.000
 -14.898   0.000   0.001   0.000   0.000
 -14.864   0.000   0.001   0.000   0.000
 -14.830   0.000   0.001   0.000   0.000
 -14.796   0.000   0.001   0.000   0.000
 -14.762   0.000   0.001   0.000   0.000
 -14.728   0.000   0.001   0.000   0.000
 -14.694   0.000   0.001   0.000   0.000
 -14.660   0.000   0.001   0.000   0.000
 -14.626   0.000   0.001   0.000   0.000
 -14.592   0.000   0.001   0.000   0.000
 -14.558   0.000   0.001   0.000   0.000
 -14.524   0.000   0.001   0.000   0.000
 -14.490   0.000   0.001   0.000   0.000
 -14.456   0.000   0.001   0.000   0.000
 -14.422   0.000   0.001   0.000   0.000
 -14.388   0.001   0.001   0.000   0.000
 -14.354   0.001   0.001   0.000   0.000
 -14.320   0.001   0.001   0.000   0.000
 -14.286   0.001   0.001   0.000   0.000
 -14.252   0.001   0.001   0.000   0.000
 -14.218   0.001   0.001   0.000   0.000
 -14.184   0.001   0.001   0.000   0.000
 -14.150   0.001   0.001   0.000   0.000
 -14.116   0.001   0.001   0.000   0.000
 -14.082   0.001   0.001   0.000   0.000
 -14.048   0.001   0.001   0.000   0.000
 -14.014   0.001   0.001   0.000   0.000
 -13.979   0.001   0.001   0.000   0.000
 -13.945   0.001   0.001   0.000   0.000
 -13.911   0.001   0.001   0.000   0.000
 -13.877   0.001   0.001   0.000   0.000
 -13.843   0.001   0.001   0.000   0.000
 -13.809   0.001   0.001   0.000   0.000
 -13.775   0.001   0.001   0.000   0.000
 -13.741   0.001   0.001   0.000   0.000
 -13.707   0.001   0.001   0.000   0.000
 -13.673   0.001   0.001   0.000   0.000
 -13.639   0.001   0.001   0.000   0.000
 -13.605   0.001   0.001   0.000   0.000
 -13.571   0.001   0.001   0.000   0.000
 -13.537   0.001   0.001   0.000   0.000
 -13.503   0.001   0.001   0.000   0.000
 -13.469   0.001   0.001   0.000   0.000
 -13.435   0.001   0.001   0.000   0.000
 -13.401   0.001   0.002   0.000   0.000
 -13.367   0.001   0.002   0.000   0.000
 -13.333   0.001   0.002   0.000   0.000
 -13.299   0.001   0.002   0.000   0.000
 -13.265   0.001   0.002   0.000   0.000
 -13.231   0.001   0.002   0.000   0.000
 -13.197   0.001   0.002   0.000   0.000
 -13.163   0.001   0.002   0.000   0.000
 -13.129   0.001   0.002   0.000   0.000
 -13.095   0.001   0.002   0.000   0.000
 -13.061   0.001   0.002   0.000   0.000
 -13.027   0.001   0.002   0.000   0.000
 -12.993   0.001   0.002   0.000   0.000
 -12.959   0.001   0.002   0.001   0.000
 -12.925   0.001   0.002   0.001   0.000
 -12.891   0.001   0.002   0.001   0.000
 -12.857   0.001   0.003   0.001   0.000
 -12.823   0.001   0.003   0.001   0.000
 -12.789   0.001   0.003   0.001   0.000
 -12.755   0.001   0.003   0.001   0.000
 -12.721   0.002   0.003   0.001   0.000
 -12.687   0.002   0.003   0.001   0.000
 -12.653   0.002   0.003   0.001   0.000
 -12.619   0.002   0.004   0.001   0.000
 -12.585   0.002   0.004   0.001   0.000
 -12.551   0.002   0.004   0.001   0.000
 -12.517   0.002   0.004   0.001   0.000
 -12.483   0.002   0.004   0.001   0.000
 -12.449   0.002   0.005   0.001   0.000
 -12.415   0.002   0.005   0.001   0.000
 -12.381   0.002   0.006   0.001   0.000
 -12.347   0.003   0.006   0.001   0.000
 -12.313   0.003   0.007   0.001   0.000
 -12.279   0.003   0.007   0.001   0.000
 -12.245   0.003   0.008   0.001   0.000
 -12.211   0.003   0.009   0.001   0.000
 -12.177   0.003   0.009   0.001   0.000
 -12.143   0.004   0.010   0.001   0.000
 -12.109   0.004   0.010   0.001   0.000
 -12.075   0.004   0.011   0.001   0.000
 -12.041   0.005   0.011   0.001   0.000
 -12.007   0.005   0.011   0.001   0.000
 -11.973   0.005   0.011   0.001   0.000
 -11.939   0.006   0.011   0.001   0.000
 -11.905   0.007   0.011   0.002   0.000
 -11.871   0.007   0.011   0.002   0.000
 -11.837   0.008   0.012   0.002   0.000
 -11.803   0.009   0.012   0.002   0.000
 -11.769   0.010   0.012   0.002   0.000
 -11.735   0.011   0.013   0.002   0.000
 -11.701   0.012   0.014   0.003   0.000
 -11.667   0.013   0.014   0.003   0.000
 -11.633   0.015   0.016   0.003   0.001
 -11.599   0.016   0.017   0.003   0.001
 -11.565   0.017   0.019   0.004   0.001
 -11.531   0.019   0.020   0.004   0.001
 -11.497   0.020   0.022   0.004   0.001
 -11.463   0.021   0.025   0.004   0.001
 -11.428   0.022   0.027   0.005   0.001
 -11.394   0.023   0.029   0.005   0.001
 -11.360   0.023   0.031   0.005   0.001
 -11.326   0.023   0.032   0.005   0.001
 -11.292   0.023   0.033   0.005   0.001
 -11.258   0.022   0.033   0.005   0.001
 -11.224   0.021   0.032   0.005   0.001
 -11.190   0.020   0.032   0.005   0.001
 -11.156   0.019   0.032   0.005   0.001
 -11.122   0.018   0.031   0.005   0.001
 -11.088   0.017   0.031   0.005   0.001
 -11.054   0.016   0.032   0.005   0.001
 -11.020   0.016   0.032   0.005   0.001
 -10.986   0.016   0.032   0.005   0.001
 -10.952   0.016   0.031   0.005   0.001
 -10.918   0.016   0.031   0.005   0.001
 -10.884   0.017   0.030   0.005   0.001
 -10.850   0.017   0.028   0.005   0.001
 -10.816   0.018   0.027   0.005   0.001
 -10.782   0.019   0.025   0.006   0.001
 -10.748   0.019   0.023   0.006   0.001
 -10.714   0.020   0.022   0.006   0.001
 -10.680   0.019   0.020   0.006   0.001
 -10.646   0.019   0.019   0.006   0.001
 -10.612   0.018   0.018   0.006   0.001
 -10.578   0.017   0.018   0.006   0.001
 -10.544   0.016   0.017   0.005   0.001
 -10.510   0.016   0.017   0.005   0.001
 -10.476   0.015   0.017   0.005   0.001
 -10.442   0.014   0.017   0.005   0.002
 -10.408   0.014   0.018   0.005   0.002
 -10.374   0.014   0.018   0.006   0.002
 -10.340   0.014   0.019   0.006   0.002
 -10.306   0.014   0.020   0.006   0.002
 -10.272   0.015   0.022   0.007   0.002
 -10.238   0.015   0.023   0.007   0.002
 -10.204   0.016   0.025   0.008   0.003
 -10.170   0.016   0.027   0.008   0.003
 -10.136   0.017   0.029   0.009   0.003
 -10.102   0.017   0.031   0.009   0.003
 -10.068   0.017   0.033   0.009   0.003
 -10.034   0.017   0.035   0.010   0.003
 -10.000   0.016   0.037   0.010   0.004
  -9.966   0.016   0.038   0.011   0.004
  -9.932   0.015   0.039   0.011   0.004
  -9.898   0.014   0.039   0.011   0.004
  -9.864   0.013   0.040   0.011   0.004
  -9.830   0.013   0.039   0.011   0.004
  -9.796   0.012   0.039   0.011   0.004
  -9.762   0.011   0.038   0.011   0.004
  -9.728   0.011   0.037   0.011   0.004
  -9.694   0.010   0.035   0.010   0.003
  -9.660   0.010   0.034   0.010   0.003
  -9.626   0.009   0.032   0.010   0.003
  -9.592   0.009   0.030   0.010   0.003
  -9.558   0.008   0.029   0.010   0.003
  -9.524   0.008   0.028   0.010   0.003
  -9.490   0.008   0.027   0.010   0.003
  -9.456   0.008   0.026   0.010   0.003
  -9.422   0.008   0.025   0.010   0.003
  -9.388   0.007   0.025   0.011   0.003
  -9.354   0.007   0.026   0.011   0.003
  -9.320   0.007   0.026   0.011   0.004
  -9.286   0.006   0.027   0.012   0.004
  -9.252   0.006   0.028   0.012   0.004
  -9.218   0.005   0.029   0.013   0.004
  -9.184   0.005   0.029   0.013   0.004
  -9.150   0.004   0.030   0.013   0.004
  -9.116   0.004   0.030   0.013   0.004
  -9.082   0.004   0.029   0.013   0.005
  -9.048   0.003   0.028   0.013   0.005
  -9.014   0.003   0.027   0.013   0.004
  -8.980   0.003   0.026   0.013   0.004
  -8.946   0.003   0.024   0.013   0.004
  -8.912   0.003   0.023   0.013   0.004
  -8.877   0.002   0.021   0.014   0.004
  -8.843   0.002   0.019   0.014   0.004
  -8.809   0.002   0.018   0.015   0.004
  -8.775   0.002   0.017   0.016   0.003
  -8.741   0.002   0.016   0.016   0.003
  -8.707   0.002   0.015   0.017   0.003
  -8.673   0.002   0.014   0.017   0.003
  -8.639   0.002   0.014   0.017   0.003
  -8.605   0.002   0.013   0.017   0.003
  -8.571   0.002   0.013   0.017   0.003
  -8.537   0.001   0.013   0.016   0.003
  -8.503   0.001   0.012   0.015   0.003
  -8.469   0.001   0.012   0.014   0.003
  -8.435   0.001   0.011   0.013   0.003
  -8.401   0.001   0.011   0.011   0.003
  -8.367   0.001   0.010   0.010   0.003
  -8.333   0.001   0.009   0.009   0.003
  -8.299   0.001   0.009   0.008   0.003
  -8.265   0.001   0.008   0.007   0.002
  -8.231   0.001   0.007   0.007   0.002
  -8.197   0.001   0.007   0.006   0.002
  -8.163   0.001   0.006   0.005   0.002
  -8.129   0.001   0.006   0.005   0.002
  -8.095   0.001   0.005   0.005   0.001
  -8.061   0.001   0.005   0.004   0.001
  -8.027   0.001   0.005   0.004   0.001
  -7.993   0.001   0.004   0.004   0.001
  -7.959   0.001   0.004   0.003   0.001
  -7.925   0.001   0.004   0.003   0.001
  -7.891   0.001   0.004   0.003   0.001
  -7.857   0.001   0.004   0.003   0.001
  -7.823   0.001   0.003   0.002   0.001
  -7.789   0.001   0.003   0.002   0.001
  -7.755   0.001   0.003   0.002   0.001
  -7.721   0.001   0.003   0.002   0.001
  -7.687   0.001   0.003   0.002   0.001
  -7.653   0.001   0.003   0.002   0.001
  -7.619   0.001   0.003   0.002   0.001
  -7.585   0.001   0.003   0.002   0.001
  -7.551   0.001   0.002   0.002   0.000
  -7.517   0.001   0.002   0.002   0.000
  -7.483   0.001   0.002   0.001   0.000
  -7.449   0.001   0.002   0.001   0.000
  -7.415   0.001   0.002   0.001   0.000
  -7.381   0.001   0.002   0.001   0.000
  -7.347   0.001   0.002   0.001   0.000
  -7.313   0.001   0.002   0.001   0.000
  -7.279   0.001   0.002   0.001   0.000
  -7.245   0.001   0.002   0.001   0.000
  -7.211   0.001   0.002   0.001   0.000
  -7.177   0.001   0.002   0.001   0.000
  -7.143   0.001   0.002   0.001   0.000
  -7.109   0.001   0.002   0.001   0.000
  -7.075   0.001   0.002   0.001   0.000
  -7.041   0.001   0.002   0.001   0.000
  -7.007   0.001   0.002   0.001   0.000
  -6.973   0.001   0.002   0.001   0.000
  -6.939   0.001   0.002   0.001   0.000
  -6.905   0.001   0.002   0.001   0.000
  -6.871   0.001   0.002   0.001   0.000
  -6.837   0.000   0.001   0.001   0.000
  -6.803   0.000   0.001   0.001   0.000
  -6.769   0.000   0.001   0.001   0.000
  -6.735   0.000   0.001   0.001   0.000
  -6.701   0.000   0.001   0.001   0.000
  -6.667   0.000   0.001   0.001   0.000
  -6.633   0.000   0.001   0.001   0.000
  -6.599   0.000   0.001   0.001   0.000
  -6.565   0.000   0.001   0.001   0.000
  -6.531   0.000   0.001   0.001   0.000
  -6.497   0.000   0.001   0.001   0.000
  -6.463   0.000   0.001   0.001   0.000
  -6.429   0.000   0.001   0.001   0.000
  -6.395   0.000   0.001   0.001   0.000
  -6.361   0.000   0.001   0.001   0.000
  -6.326   0.000   0.001   0.001   0.000
  -6.292   0.000   0.001   0.001   0.000
  -6.258   0.000   0.001   0.001   0.000
  -6.224   0.000   0.001   0.001   0.000
  -6.190   0.000   0.001   0.001   0.000
  -6.156   0.000   0.001   0.001   0.000
  -6.122   0.000   0.001   0.001   0.000
  -6.088   0.000   0.001   0.001   0.000
  -6.054   0.000   0.001   0.001   0.000
  -6.020   0.000   0.001   0.001   0.000
  -5.986   0.000   0.001   0.001   0.000
  -5.952   0.000   0.001   0.000   0.000
  -5.918   0.000   0.001   0.000   0.000
  -5.884   0.000   0.001   0.000   0.000
  -5.850   0.000   0.001   0.000   0.000
  -5.816   0.000   0.001   0.000   0.000
  -5.782   0.000   0.001   0.000   0.000
  -5.748   0.000   0.001   0.000   0.000
  -5.714   0.000   0.001   0.000   0.000
  -5.680   0.000   0.001   0.000   0.000
  -5.646   0.000   0.001   0.000   0.000
  -5.612   0.000   0.001   0.000   0.000
  -5.578   0.000   0.001   0.000   0.000
  -5.544   0.000   0.001   0.000   0.000
  -5.510   0.000   0.001   0.000   0.000
  -5.476   0.000   0.001   0.000   0.000
  -5.442   0.000   0.001   0.000   0.000
  -5.408   0.000   0.001   0.000   0.000
  -5.374   0.000   0.001   0.000   0.000
  -5.340   0.000   0.001   0.000   0.000
  -5.306   0.000   0.001   0.000   0.000
  -5.272   0.000   0.001   0.000   0.000
  -5.238   0.000   0.001   0.000   0.000
  -5.204   0.000   0.001   0.000   0.000
  -5.170   0.000   0.001   0.000   0.000
  -5.136   0.000   0.001   0.000   0.000
  -5.102   0.000   0.001   0.000   0.000
  -5.068   0.000   0.001   0.000   0.000
  -5.034   0.000   0.001   0.000   0.000
  -5.000   0.000   0.001   0.000   0.000
  -4.966   0.000   0.001   0.000   0.000
  -4.932   0.000   0.001   0.000   0.000
  -4.898   0.000   0.001   0.000   0.000
  -4.864   0.000   0.001   0.000   0.000
  -4.830   0.000   0.001   0.000   0.000
  -4.796   0.000   0.001   0.000   0.000
  -4.762   0.000   0.001   0.000   0.000
  -4.728   0.000   0.001   0.000   0.000
  -4.694   0.000   0.001   0.000   0.000
  -4.660   0.000   0.001   0.000   0.000
  -4.626   0.000   0.001   0.000   0.000
  -4.592   0.000   0.001   0.000   0.000
  -4.558   0.000   0.001   0.000   0.000
  -4.524   0.000   0.001   0.000   0.000
  -4.490   0.000   0.001   0.000   0.000
  -4.456   0.000   0.001   0.000   0.000
  -4.422   0.000   0.001   0.000   0.000
  -4.388   0.000   0.001   0.000   0.000
  -4.354   0.000   0.001   0.000   0.000
  -4.320   0.000   0.001   0.000   0.000
  -4.286   0.000   0.001   0.000   0.000
  -4.252   0.000   0.001   0.000   0.000
  -4.218   0.000   0.001   0.000   0.000
  -4.184   0.000   0.001   0.000   0.000
  -4.150   0.000   0.001   0.000   0.000
  -4.116   0.000   0.001   0.000   0.000
  -4.082   0.000   0.001   0.000   0.000
  -4.048   0.000   0.001   0.000   0.000
  -4.014   0.000   0.001   0.000   0.000
  -3.980   0.000   0.001   0.000   0.000
  -3.946   0.000   0.001   0.000   0.000
  -3.912   0.000   0.001   0.000   0.000
  -3.878   0.000   0.001   0.000   0.000
  -3.844   0.000   0.001   0.000   0.000
  -3.809   0.000   0.001   0.000   0.000
  -3.775   0.000   0.001   0.000   0.000
  -3.741   0.000   0.001   0.000   0.000
  -3.707   0.000   0.001   0.000   0.000
  -3.673   0.000   0.001   0.000   0.000
  -3.639   0.000   0.001   0.000   0.000
  -3.605   0.000   0.001   0.000   0.000
  -3.571   0.000   0.001   0.000   0.000
  -3.537   0.000   0.001   0.000   0.000
  -3.503   0.000   0.001   0.000   0.000
  -3.469   0.000   0.001   0.000   0.000
  -3.435   0.000   0.001   0.000   0.000
  -3.401   0.000   0.001   0.000   0.000
  -3.367   0.000   0.001   0.000   0.000
  -3.333   0.000   0.001   0.000   0.000
  -3.299   0.000   0.001   0.000   0.000
  -3.265   0.000   0.001   0.000   0.000
  -3.231   0.000   0.001   0.000   0.000
  -3.197   0.000   0.001   0.000   0.000
  -3.163   0.000   0.001   0.000   0.000
  -3.129   0.000   0.001   0.000   0.000
  -3.095   0.000   0.001   0.000   0.000
  -3.061   0.000   0.001   0.000   0.000
  -3.027   0.000   0.001   0.000   0.000
  -2.993   0.000   0.001   0.000   0.000
  -2.959   0.000   0.001   0.000   0.000
  -2.925   0.000   0.001   0.000   0.000
  -2.891   0.000   0.001   0.000   0.000
  -2.857   0.000   0.001   0.000   0.000
  -2.823   0.000   0.001   0.000   0.000
  -2.789   0.000   0.001   0.000   0.000
  -2.755   0.000   0.001   0.000   0.000
  -2.721   0.000   0.001   0.000   0.000
  -2.687   0.000   0.001   0.000   0.000
  -2.653   0.000   0.001   0.000   0.000
  -2.619   0.000   0.001   0.000   0.000
  -2.585   0.000   0.001   0.000   0.000
  -2.551   0.000   0.001   0.000   0.000
  -2.517   0.000   0.001   0.000   0.000
  -2.483   0.000   0.001   0.000   0.000
  -2.449   0.000   0.001   0.000   0.000
  -2.415   0.000   0.001   0.000   0.000
  -2.381   0.000   0.001   0.000   0.000